 Entering Gaussian System, Link 0=/usr/local/apps//g09/g09
 Input=34.com
 Output=34.out
 Initial command:
 /usr/local/apps//g09/l1.exe "/tmp/bnp.472659.sequoia/Gau-24741.inp" -scrdir="/tmp/bnp.472659.sequoia/"
 Entering Link 1 = /usr/local/apps//g09/l1.exe PID=     24742.
  
 Copyright (c) 1988,1990,1992,1993,1995,1998,2003,2009,2013,
            Gaussian, Inc.  All Rights Reserved.
  
 This is part of the Gaussian(R) 09 program.  It is based on
 the Gaussian(R) 03 system (copyright 2003, Gaussian, Inc.),
 the Gaussian(R) 98 system (copyright 1998, Gaussian, Inc.),
 the Gaussian(R) 94 system (copyright 1995, Gaussian, Inc.),
 the Gaussian 92(TM) system (copyright 1992, Gaussian, Inc.),
 the Gaussian 90(TM) system (copyright 1990, Gaussian, Inc.),
 the Gaussian 88(TM) system (copyright 1988, Gaussian, Inc.),
 the Gaussian 86(TM) system (copyright 1986, Carnegie Mellon
 University), and the Gaussian 82(TM) system (copyright 1983,
 Carnegie Mellon University). Gaussian is a federally registered
 trademark of Gaussian, Inc.
  
 This software contains proprietary and confidential information,
 including trade secrets, belonging to Gaussian, Inc.
  
 This software is provided under written license and may be
 used, copied, transmitted, or stored only in accord with that
 written license.
  
 The following legend is applicable only to US Government
 contracts under FAR:
  
                    RESTRICTED RIGHTS LEGEND
  
 Use, reproduction and disclosure by the US Government is
 subject to restrictions as set forth in subparagraphs (a)
 and (c) of the Commercial Computer Software - Restricted
 Rights clause in FAR 52.227-19.
  
 Gaussian, Inc.
 340 Quinnipiac St., Bldg. 40, Wallingford CT 06492
  
  
 ---------------------------------------------------------------
 Warning -- This program may not be used in any manner that
 competes with the business of Gaussian, Inc. or will provide
 assistance to any competitor of Gaussian, Inc.  The licensee
 of this program is prohibited from giving any competitor of
 Gaussian, Inc. access to this program.  By using this program,
 the user acknowledges that Gaussian, Inc. is engaged in the
 business of creating and licensing software in the field of
 computational chemistry and represents and warrants to the
 licensee that it is not a competitor of Gaussian, Inc. and that
 it will not use this program in any manner prohibited above.
 ---------------------------------------------------------------
  

 Cite this work as:
 Gaussian 09, Revision D.01,
 M. J. Frisch, G. W. Trucks, H. B. Schlegel, G. E. Scuseria, 
 M. A. Robb, J. R. Cheeseman, G. Scalmani, V. Barone, B. Mennucci, 
 G. A. Petersson, H. Nakatsuji, M. Caricato, X. Li, H. P. Hratchian, 
 A. F. Izmaylov, J. Bloino, G. Zheng, J. L. Sonnenberg, M. Hada, 
 M. Ehara, K. Toyota, R. Fukuda, J. Hasegawa, M. Ishida, T. Nakajima, 
 Y. Honda, O. Kitao, H. Nakai, T. Vreven, J. A. Montgomery, Jr., 
 J. E. Peralta, F. Ogliaro, M. Bearpark, J. J. Heyd, E. Brothers, 
 K. N. Kudin, V. N. Staroverov, T. Keith, R. Kobayashi, J. Normand, 
 K. Raghavachari, A. Rendell, J. C. Burant, S. S. Iyengar, J. Tomasi, 
 M. Cossi, N. Rega, J. M. Millam, M. Klene, J. E. Knox, J. B. Cross, 
 V. Bakken, C. Adamo, J. Jaramillo, R. Gomperts, R. E. Stratmann, 
 O. Yazyev, A. J. Austin, R. Cammi, C. Pomelli, J. W. Ochterski, 
 R. L. Martin, K. Morokuma, V. G. Zakrzewski, G. A. Voth, 
 P. Salvador, J. J. Dannenberg, S. Dapprich, A. D. Daniels, 
 O. Farkas, J. B. Foresman, J. V. Ortiz, J. Cioslowski, 
 and D. J. Fox, Gaussian, Inc., Wallingford CT, 2013.
 
 ******************************************
 Gaussian 09:  ES64L-G09RevD.01 24-Apr-2013
                15-Jun-2021 
 ******************************************
 -------------------
 #N B3LYP/STO-3G OPT
 -------------------
 1/14=-1,18=20,19=15,26=3,38=1/1,3;
 2/9=110,12=2,17=6,18=5,40=1/2;
 3/6=3,11=2,16=1,25=1,30=1,71=1,74=-5/1,2,3;
 4//1;
 5/5=2,38=5/2;
 6/7=2,8=2,9=2,10=2,28=1/1;
 7//1,2,3,16;
 1/14=-1,18=20,19=15,26=3/3(2);
 2/9=110/2;
 99//99;
 2/9=110/2;
 3/6=3,11=2,16=1,25=1,30=1,71=1,74=-5/1,2,3;
 4/5=5,16=3,69=1/1;
 5/5=2,38=5/2;
 7//1,2,3,16;
 1/14=-1,18=20,19=15,26=3/3(-5);
 2/9=110/2;
 6/7=2,8=2,9=2,10=2,19=2,28=1/1;
 99/9=1/99;
 -----
 1Naph
 -----
 Symbolic Z-matrix:
 Charge = -1 Multiplicity = 1
 N                     1.05198  -0.06579  -0.06392 
 C                     2.21255  -0.08896  -0.06367 
 C                     3.64911  -0.10986  -0.06345 
 C                     4.31982   1.12258  -0.06328 
 C                     5.70975   1.16693  -0.06321 
 C                     6.43899  -0.01908  -0.06337 
 C                     5.79354  -1.26359  -0.06346 
 C                     4.37599  -1.33004  -0.06353 
 C                     3.77715  -2.61497  -0.0636 
 C                     4.54967  -3.77766  -0.06368 
 C                     5.93524  -3.69391  -0.06371 
 C                     6.55398  -2.44384  -0.06359 
 N                     7.39288  -5.83443  -0.06375 
 C                     6.72196  -4.88782  -0.06374 
 H                     3.75936   2.05657  -0.06326 
 H                     6.22748   2.1232   -0.06299 
 H                     7.52659   0.03891  -0.06324 
 H                     2.69445  -2.73285  -0.06367 
 H                     7.64293  -2.38832  -0.06355 
 

 GradGradGradGradGradGradGradGradGradGradGradGradGradGradGradGradGradGrad
 Berny optimization.
 Initialization pass.
                           ----------------------------
                           !    Initial Parameters    !
                           ! (Angstroms and Degrees)  !
 --------------------------                            --------------------------
 ! Name  Definition              Value          Derivative Info.                !
 --------------------------------------------------------------------------------
 ! R1    R(1,2)                  1.1608         estimate D2E/DX2                !
 ! R2    R(2,3)                  1.4367         estimate D2E/DX2                !
 ! R3    R(3,4)                  1.4031         estimate D2E/DX2                !
 ! R4    R(3,8)                  1.4203         estimate D2E/DX2                !
 ! R5    R(4,5)                  1.3906         estimate D2E/DX2                !
 ! R6    R(4,15)                 1.0892         estimate D2E/DX2                !
 ! R7    R(5,6)                  1.3923         estimate D2E/DX2                !
 ! R8    R(5,16)                 1.0874         estimate D2E/DX2                !
 ! R9    R(6,7)                  1.4019         estimate D2E/DX2                !
 ! R10   R(6,17)                 1.0891         estimate D2E/DX2                !
 ! R11   R(7,8)                  1.4191         estimate D2E/DX2                !
 ! R12   R(7,12)                 1.404          estimate D2E/DX2                !
 ! R13   R(8,9)                  1.4176         estimate D2E/DX2                !
 ! R14   R(9,10)                 1.3959         estimate D2E/DX2                !
 ! R15   R(9,18)                 1.0891         estimate D2E/DX2                !
 ! R16   R(10,11)                1.3881         estimate D2E/DX2                !
 ! R17   R(11,12)                1.3948         estimate D2E/DX2                !
 ! R18   R(11,14)                1.4298         estimate D2E/DX2                !
 ! R19   R(12,19)                1.0904         estimate D2E/DX2                !
 ! R20   R(13,14)                1.1603         estimate D2E/DX2                !
 ! A1    A(2,3,4)              117.7221         estimate D2E/DX2                !
 ! A2    A(2,3,8)              121.6164         estimate D2E/DX2                !
 ! A3    A(4,3,8)              120.6615         estimate D2E/DX2                !
 ! A4    A(3,4,5)              120.3832         estimate D2E/DX2                !
 ! A5    A(3,4,15)             120.4777         estimate D2E/DX2                !
 ! A6    A(5,4,15)             119.1392         estimate D2E/DX2                !
 ! A7    A(4,5,6)              119.7585         estimate D2E/DX2                !
 ! A8    A(4,5,16)             120.2589         estimate D2E/DX2                !
 ! A9    A(6,5,16)             119.9826         estimate D2E/DX2                !
 ! A10   A(5,6,7)              121.001          estimate D2E/DX2                !
 ! A11   A(5,6,17)             118.534          estimate D2E/DX2                !
 ! A12   A(7,6,17)             120.465          estimate D2E/DX2                !
 ! A13   A(6,7,8)              120.0968         estimate D2E/DX2                !
 ! A14   A(6,7,12)             119.7932         estimate D2E/DX2                !
 ! A15   A(8,7,12)             120.11           estimate D2E/DX2                !
 ! A16   A(3,8,7)              118.099          estimate D2E/DX2                !
 ! A17   A(3,8,9)              124.2293         estimate D2E/DX2                !
 ! A18   A(7,8,9)              117.6717         estimate D2E/DX2                !
 ! A19   A(8,9,10)             121.4111         estimate D2E/DX2                !
 ! A20   A(8,9,18)             121.2015         estimate D2E/DX2                !
 ! A21   A(10,9,18)            117.3874         estimate D2E/DX2                !
 ! A22   A(9,10,11)            120.142          estimate D2E/DX2                !
 ! A23   A(10,11,12)           119.7928         estimate D2E/DX2                !
 ! A24   A(10,11,14)           119.9236         estimate D2E/DX2                !
 ! A25   A(12,11,14)           120.2836         estimate D2E/DX2                !
 ! A26   A(7,12,11)            120.8724         estimate D2E/DX2                !
 ! A27   A(7,12,19)            119.8752         estimate D2E/DX2                !
 ! A28   A(11,12,19)           119.2525         estimate D2E/DX2                !
 ! A29   L(1,2,3,18,-1)        180.3102         estimate D2E/DX2                !
 ! A30   L(11,14,13,19,-1)     178.0551         estimate D2E/DX2                !
 ! A31   L(1,2,3,18,-2)        179.9964         estimate D2E/DX2                !
 ! A32   L(11,14,13,19,-2)     179.9993         estimate D2E/DX2                !
 ! D1    D(2,3,4,5)           -179.993          estimate D2E/DX2                !
 ! D2    D(2,3,4,15)             0.0034         estimate D2E/DX2                !
 ! D3    D(8,3,4,5)              0.0011         estimate D2E/DX2                !
 ! D4    D(8,3,4,15)           179.9975         estimate D2E/DX2                !
 ! D5    D(2,3,8,7)            179.9926         estimate D2E/DX2                !
 ! D6    D(2,3,8,9)             -0.0111         estimate D2E/DX2                !
 ! D7    D(4,3,8,7)             -0.0012         estimate D2E/DX2                !
 ! D8    D(4,3,8,9)            179.9951         estimate D2E/DX2                !
 ! D9    D(3,4,5,6)              0.0029         estimate D2E/DX2                !
 ! D10   D(3,4,5,16)          -179.9946         estimate D2E/DX2                !
 ! D11   D(15,4,5,6)          -179.9936         estimate D2E/DX2                !
 ! D12   D(15,4,5,16)            0.0089         estimate D2E/DX2                !
 ! D13   D(4,5,6,7)             -0.0068         estimate D2E/DX2                !
 ! D14   D(4,5,6,17)          -179.9957         estimate D2E/DX2                !
 ! D15   D(16,5,6,7)           179.9908         estimate D2E/DX2                !
 ! D16   D(16,5,6,17)            0.0018         estimate D2E/DX2                !
 ! D17   D(5,6,7,8)              0.0066         estimate D2E/DX2                !
 ! D18   D(5,6,7,12)          -179.9985         estimate D2E/DX2                !
 ! D19   D(17,6,7,8)           179.9954         estimate D2E/DX2                !
 ! D20   D(17,6,7,12)           -0.0098         estimate D2E/DX2                !
 ! D21   D(6,7,8,3)             -0.0026         estimate D2E/DX2                !
 ! D22   D(6,7,8,9)           -179.9991         estimate D2E/DX2                !
 ! D23   D(12,7,8,3)          -179.9974         estimate D2E/DX2                !
 ! D24   D(12,7,8,9)             0.0061         estimate D2E/DX2                !
 ! D25   D(6,7,12,11)         -179.9986         estimate D2E/DX2                !
 ! D26   D(6,7,12,19)            0.0043         estimate D2E/DX2                !
 ! D27   D(8,7,12,11)           -0.0038         estimate D2E/DX2                !
 ! D28   D(8,7,12,19)          179.9991         estimate D2E/DX2                !
 ! D29   D(3,8,9,10)           179.9999         estimate D2E/DX2                !
 ! D30   D(3,8,9,18)             0.0046         estimate D2E/DX2                !
 ! D31   D(7,8,9,10)            -0.0038         estimate D2E/DX2                !
 ! D32   D(7,8,9,18)          -179.9991         estimate D2E/DX2                !
 ! D33   D(8,9,10,11)           -0.0008         estimate D2E/DX2                !
 ! D34   D(18,9,10,11)         179.9946         estimate D2E/DX2                !
 ! D35   D(9,10,11,12)           0.0033         estimate D2E/DX2                !
 ! D36   D(9,10,11,14)         179.9976         estimate D2E/DX2                !
 ! D37   D(10,11,12,7)          -0.001          estimate D2E/DX2                !
 ! D38   D(10,11,12,19)        179.9961         estimate D2E/DX2                !
 ! D39   D(14,11,12,7)        -179.9953         estimate D2E/DX2                !
 ! D40   D(14,11,12,19)          0.0018         estimate D2E/DX2                !
 --------------------------------------------------------------------------------
 Trust Radius=3.00D-01 FncErr=1.00D-07 GrdErr=1.00D-06
 Number of steps in this run=    102 maximum allowed number of steps=    114.
 GradGradGradGradGradGradGradGradGradGradGradGradGradGradGradGradGradGrad

                          Input orientation:                          
 ---------------------------------------------------------------------
 Center     Atomic      Atomic             Coordinates (Angstroms)
 Number     Number       Type             X           Y           Z
 ---------------------------------------------------------------------
      1          7           0        1.051980   -0.065790   -0.063920
      2          6           0        2.212550   -0.088960   -0.063670
      3          6           0        3.649110   -0.109860   -0.063450
      4          6           0        4.319820    1.122580   -0.063280
      5          6           0        5.709750    1.166930   -0.063210
      6          6           0        6.438990   -0.019080   -0.063370
      7          6           0        5.793540   -1.263590   -0.063460
      8          6           0        4.375990   -1.330040   -0.063530
      9          6           0        3.777150   -2.614970   -0.063600
     10          6           0        4.549670   -3.777660   -0.063680
     11          6           0        5.935240   -3.693910   -0.063710
     12          6           0        6.553980   -2.443840   -0.063590
     13          7           0        7.392880   -5.834430   -0.063750
     14          6           0        6.721960   -4.887820   -0.063740
     15          1           0        3.759360    2.056570   -0.063260
     16          1           0        6.227480    2.123200   -0.062990
     17          1           0        7.526590    0.038910   -0.063240
     18          1           0        2.694450   -2.732850   -0.063670
     19          1           0        7.642930   -2.388320   -0.063550
 ---------------------------------------------------------------------
                    Distance matrix (angstroms):
                    1          2          3          4          5
     1  N    0.000000
     2  C    1.160801   0.000000
     3  C    2.597504   1.436712   0.000000
     4  C    3.477212   2.430723   1.403125   0.000000
     5  C    4.818135   3.715867   2.424135   1.390637   0.000000
     6  C    5.387213   4.227018   2.791357   2.407129   1.392268
     7  C    4.890513   3.768719   2.435092   2.804578   2.431964
     8  C    3.556314   2.494144   1.420279   2.453263   2.830861
     9  C    3.731604   2.971313   2.508380   3.776741   4.247083
    10  C    5.100178   4.366765   3.776740   4.905628   5.078854
    11  C    6.083542   5.182093   4.251095   5.080173   4.866067
    12  C    5.993924   4.938975   3.726356   4.208423   3.708151
    13  N    8.572294   7.736035   6.840067   7.605504   7.200831
    14  C    7.443161   6.585122   5.680784   6.472649   6.138776
    15  H    3.440104   2.644980   2.169234   1.089244   2.143707
    16  H    5.619384   4.584028   3.410945   2.154160   1.087427
    17  H    6.475457   5.315578   3.880333   3.384925   2.138536
    18  H    3.132238   2.687449   2.791317   4.184037   4.929535
    19  H    6.988188   5.897125   4.598041   4.834199   4.046849
                    6          7          8          9         10
     6  C    0.000000
     7  C    1.401931   0.000000
     8  C    2.444296   1.419107   0.000000
     9  C    3.718069   2.427356   1.417623   0.000000
    10  C    4.206715   2.804953   2.453774   1.395935   0.000000
    11  C    3.709197   2.434447   2.831809   2.412771   1.388099
    12  C    2.427485   1.404015   2.446261   2.782098   2.407558
    13  N    5.893064   4.842568   5.421361   4.841325   3.509152
    14  C    4.876956   3.741257   4.261616   3.719913   2.439528
    15  H    3.389504   3.893758   3.442290   4.671574   5.887515
    16  H    2.152696   3.414477   3.918275   5.334264   6.134753
    17  H    1.089145   2.167941   3.435157   4.593624   4.840275
    18  H    4.624514   3.429735   2.189852   1.089098   2.129194
    19  H    2.657587   2.164546   3.434072   3.872419   3.390947
                   11         12         13         14         15
    11  C    0.000000
    12  C    1.394817   0.000000
    13  N    2.589699   3.492829   0.000000
    14  C    1.429807   2.449746   1.160260   0.000000
    15  H    6.148372   5.297508   8.687367   7.549937   0.000000
    16  H    5.824446   4.578696   8.042514   7.028436   2.469019
    17  H    4.057874   2.666462   5.874862   4.992003   4.273520
    18  H    3.380289   3.870336   5.629835   4.567793   4.906381
    19  H    2.149598   1.090364   3.455170   2.663773   5.902471
                   16         17         18         19
    16  H    0.000000
    17  H    2.456003   0.000000
    18  H    6.005291   5.570658   0.000000
    19  H    4.728352   2.430017   4.960459   0.000000
 Stoichiometry    C12H5N2(1-)
 Framework group  C1[X(C12H5N2)]
 Deg. of freedom    51
 Full point group                 C1      NOp   1
 Largest Abelian subgroup         C1      NOp   1
 Largest concise Abelian subgroup C1      NOp   1
                         Standard orientation:                         
 ---------------------------------------------------------------------
 Center     Atomic      Atomic             Coordinates (Angstroms)
 Number     Number       Type             X           Y           Z
 ---------------------------------------------------------------------
      1          7           0       -3.474285   -2.311955   -0.000358
      2          6           0       -2.804467   -1.363903   -0.000108
      3          6           0       -1.981804   -0.186037    0.000112
      4          6           0       -2.626351    1.060285    0.000282
      5          6           0       -1.883862    2.236118    0.000352
      6          6           0       -0.492932    2.175092    0.000192
      7          6           0        0.175770    0.942919    0.000102
      8          6           0       -0.563902   -0.268174    0.000032
      9          6           0        0.164401   -1.484410   -0.000038
     10          6           0        1.560284   -1.496524   -0.000118
     11          6           0        2.267702   -0.302213   -0.000148
     12          6           0        1.579422    0.910958   -0.000028
     13          7           0        4.857392   -0.295180   -0.000188
     14          6           0        3.697398   -0.320071   -0.000178
     15          1           0       -3.713968    1.119789    0.000302
     16          1           0       -2.385481    3.200937    0.000572
     17          1           0        0.068772    3.108218    0.000322
     18          1           0       -0.344962   -2.447054   -0.000108
     19          1           0        2.143928    1.843818    0.000012
 ---------------------------------------------------------------------
 Rotational constants (GHZ):      1.5011181      0.4666554      0.3559886
 Standard basis: STO-3G (5D, 7F)
 There are    75 symmetry adapted cartesian basis functions of A   symmetry.
 There are    75 symmetry adapted basis functions of A   symmetry.
    75 basis functions,   225 primitive gaussians,    75 cartesian basis functions
    46 alpha electrons       46 beta electrons
       nuclear repulsion energy       705.4724931798 Hartrees.
 NAtoms=   19 NActive=   19 NUniq=   19 SFac= 1.00D+00 NAtFMM=   60 NAOKFM=F Big=F
 Integral buffers will be    131072 words long.
 Raffenetti 2 integral format.
 Two-electron integral symmetry is turned on.
 One-electron integrals computed using PRISM.
 NBasis=    75 RedAO= T EigKep=  1.55D-01  NBF=    75
 NBsUse=    75 1.00D-06 EigRej= -1.00D+00 NBFU=    75
 ExpMin= 1.69D-01 ExpMax= 9.91D+01 ExpMxC= 9.91D+01 IAcc=1 IRadAn=         1 AccDes= 0.00D+00
 Harris functional with IExCor=  402 and IRadAn=       1 diagonalized for initial guess.
 HarFok:  IExCor=  402 AccDes= 0.00D+00 IRadAn=         1 IDoV= 1 UseB2=F ITyADJ=14
 ICtDFT=  3500011 ScaDFX=  1.000000  1.000000  1.000000  1.000000
 FoFCou: FMM=F IPFlag=           0 FMFlag=      100000 FMFlg1=           0
         NFxFlg=           0 DoJE=T BraDBF=F KetDBF=T FulRan=T
         wScrn=  0.000000 ICntrl=     500 IOpCl=  0 I1Cent=   200000004 NGrid=           0
         NMat0=    1 NMatS0=      1 NMatT0=    0 NMatD0=    1 NMtDS0=    0 NMtDT0=    0
 Petite list used in FoFCou.
 Keep R1 ints in memory in canonical form, NReq=4993994.
 Requested convergence on RMS density matrix=1.00D-08 within 128 cycles.
 Requested convergence on MAX density matrix=1.00D-06.
 Requested convergence on             energy=1.00D-06.
 No special actions if energy rises.
 Integral accuracy reduced to 1.0D-05 until final iterations.
 EnCoef did     6 forward-backward iterations
 EnCoef did     3 forward-backward iterations
 EnCoef did     2 forward-backward iterations
 Initial convergence to 1.0D-05 achieved.  Increase integral accuracy.
 SCF Done:  E(RB3LYP) =  -562.481338937     A.U. after   23 cycles
            NFock= 23  Conv=0.93D-08     -V/T= 2.0128

 **********************************************************************

            Population analysis using the SCF density.

 **********************************************************************

 Orbital symmetries:
       Occupied  (A) (A) (A) (A) (A) (A) (A) (A) (A) (A) (A) (A)
                 (A) (A) (A) (A) (A) (A) (A) (A) (A) (A) (A) (A)
                 (A) (A) (A) (A) (A) (A) (A) (A) (A) (A) (A) (A)
                 (A) (A) (A) (A) (A) (A) (A) (A) (A) (A)
       Virtual   (A) (A) (A) (A) (A) (A) (A) (A) (A) (A) (A) (A)
                 (A) (A) (A) (A) (A) (A) (A) (A) (A) (A) (A) (A)
                 (A) (A) (A) (A) (A)
 The electronic state is 1-A.
 Alpha  occ. eigenvalues --  -13.99225 -13.95293  -9.90346  -9.89896  -9.88910
 Alpha  occ. eigenvalues --   -9.88271  -9.87542  -9.87060  -9.86630  -9.86141
 Alpha  occ. eigenvalues --   -9.84761  -9.84543  -9.79006  -9.64277  -0.74275
 Alpha  occ. eigenvalues --   -0.71037  -0.69217  -0.62796  -0.59868  -0.55691
 Alpha  occ. eigenvalues --   -0.51202  -0.46621  -0.42996  -0.40761  -0.35404
 Alpha  occ. eigenvalues --   -0.33759  -0.30883  -0.28303  -0.25739  -0.23641
 Alpha  occ. eigenvalues --   -0.22252  -0.22014  -0.19950  -0.17615  -0.17535
 Alpha  occ. eigenvalues --   -0.15584  -0.15341  -0.14371  -0.13891  -0.11961
 Alpha  occ. eigenvalues --   -0.11069  -0.09768  -0.08100  -0.02688   0.01488
 Alpha  occ. eigenvalues --    0.15265
 Alpha virt. eigenvalues --    0.15903   0.23179   0.24761   0.27508   0.31217
 Alpha virt. eigenvalues --    0.32603   0.33801   0.40652   0.45476   0.48380
 Alpha virt. eigenvalues --    0.49270   0.52809   0.53785   0.58266   0.59368
 Alpha virt. eigenvalues --    0.60826   0.63593   0.64611   0.69955   0.72382
 Alpha virt. eigenvalues --    0.75179   0.78030   0.81158   0.84893   0.90017
 Alpha virt. eigenvalues --    0.97873   0.99517   1.14274   1.18354
          Condensed to atoms (all electrons):
               1          2          3          4          5          6
     1  N    6.571896   0.687279  -0.011174  -0.000228  -0.000001   0.000000
     2  C    0.687279   4.885822   0.428317  -0.034167   0.001052   0.000019
     3  C   -0.011174   0.428317   4.772911   0.507016  -0.030718  -0.011834
     4  C   -0.000228  -0.034167   0.507016   4.820805   0.494943  -0.030728
     5  C   -0.000001   0.001052  -0.030718   0.494943   4.831625   0.515542
     6  C    0.000000   0.000019  -0.011834  -0.030728   0.515542   4.819710
     7  C   -0.000002   0.000949  -0.029555  -0.010573  -0.030257   0.485973
     8  C   -0.000007  -0.029121   0.458156  -0.028458  -0.009497  -0.027994
     9  C   -0.000081  -0.004071  -0.027531   0.000734   0.000043   0.000978
    10  C    0.000000   0.000020   0.000964  -0.000011   0.000000   0.000018
    11  C    0.000000   0.000001   0.000040   0.000000  -0.000010   0.000925
    12  C    0.000000  -0.000007   0.001021   0.000034   0.000981  -0.034098
    13  N    0.000000   0.000000   0.000000   0.000000   0.000000   0.000000
    14  C    0.000000   0.000000   0.000000   0.000000   0.000000  -0.000009
    15  H    0.000057  -0.003994  -0.024912   0.389389  -0.026791   0.001559
    16  H    0.000000  -0.000021   0.001458  -0.026322   0.391697  -0.026119
    17  H    0.000000   0.000001   0.000039   0.001575  -0.027545   0.389308
    18  H   -0.000304   0.001804  -0.002976   0.000001  -0.000001  -0.000022
    19  H    0.000000   0.000000  -0.000016  -0.000001   0.000032  -0.004858
               7          8          9         10         11         12
     1  N   -0.000002  -0.000007  -0.000081   0.000000   0.000000   0.000000
     2  C    0.000949  -0.029121  -0.004071   0.000020   0.000001  -0.000007
     3  C   -0.029555   0.458156  -0.027531   0.000964   0.000040   0.001021
     4  C   -0.010573  -0.028458   0.000734  -0.000011   0.000000   0.000034
     5  C   -0.030257  -0.009497   0.000043   0.000000  -0.000010   0.000981
     6  C    0.485973  -0.027994   0.000978   0.000018   0.000925  -0.034098
     7  C    4.784863   0.463784  -0.033336  -0.011823  -0.030595   0.488698
     8  C    0.463784   4.813060   0.468476  -0.026456  -0.011304  -0.028828
     9  C   -0.033336   0.468476   4.897924   0.490153  -0.028974  -0.014154
    10  C   -0.011823  -0.026456   0.490153   5.428773   0.452005  -0.030573
    11  C   -0.030595  -0.011304  -0.028974   0.452005   4.804867   0.495156
    12  C    0.488698  -0.028828  -0.014154  -0.030573   0.495156   4.872204
    13  N   -0.000001   0.000000  -0.000003   0.000058  -0.011014  -0.000076
    14  C    0.000955  -0.000030   0.001460  -0.038583   0.415636  -0.041457
    15  H    0.000036   0.001296  -0.000017   0.000000   0.000000   0.000001
    16  H    0.001459   0.000028   0.000001   0.000000   0.000000  -0.000021
    17  H   -0.025001   0.001399  -0.000020   0.000000   0.000030  -0.004430
    18  H    0.001280  -0.032709   0.387245  -0.037744   0.002169  -0.000027
    19  H   -0.027021   0.001316   0.000112   0.001658  -0.026170   0.380606
              13         14         15         16         17         18
     1  N    0.000000   0.000000   0.000057   0.000000   0.000000  -0.000304
     2  C    0.000000   0.000000  -0.003994  -0.000021   0.000001   0.001804
     3  C    0.000000   0.000000  -0.024912   0.001458   0.000039  -0.002976
     4  C    0.000000   0.000000   0.389389  -0.026322   0.001575   0.000001
     5  C    0.000000   0.000000  -0.026791   0.391697  -0.027545  -0.000001
     6  C    0.000000  -0.000009   0.001559  -0.026119   0.389308  -0.000022
     7  C   -0.000001   0.000955   0.000036   0.001459  -0.025001   0.001280
     8  C    0.000000  -0.000030   0.001296   0.000028   0.001399  -0.032709
     9  C   -0.000003   0.001460  -0.000017   0.000001  -0.000020   0.387245
    10  C    0.000058  -0.038583   0.000000   0.000000   0.000000  -0.037744
    11  C   -0.011014   0.415636   0.000000   0.000000   0.000030   0.002169
    12  C   -0.000076  -0.041457   0.000001  -0.000021  -0.004430  -0.000027
    13  N    6.600147   0.687266   0.000000   0.000000   0.000000   0.000000
    14  C    0.687266   4.915244   0.000000   0.000000  -0.000001  -0.000003
    15  H    0.000000   0.000000   0.604185  -0.004010  -0.000040   0.000000
    16  H    0.000000   0.000000  -0.004010   0.611903  -0.004087   0.000000
    17  H    0.000000  -0.000001  -0.000040  -0.004087   0.606811   0.000001
    18  H    0.000000  -0.000003   0.000000   0.000000   0.000001   0.646617
    19  H    0.000040  -0.002615   0.000000  -0.000002   0.000975   0.000005
              19
     1  N    0.000000
     2  C    0.000000
     3  C   -0.000016
     4  C   -0.000001
     5  C    0.000032
     6  C   -0.004858
     7  C   -0.027021
     8  C    0.001316
     9  C    0.000112
    10  C    0.001658
    11  C   -0.026170
    12  C    0.380606
    13  N    0.000040
    14  C   -0.002615
    15  H    0.000000
    16  H   -0.000002
    17  H    0.000975
    18  H    0.000005
    19  H    0.630445
 Mulliken charges:
               1
     1  N   -0.247436
     2  C    0.066117
     3  C   -0.031207
     4  C   -0.084009
     5  C   -0.111094
     6  C   -0.078372
     7  C   -0.029833
     8  C   -0.013114
     9  C   -0.138937
    10  C   -0.228460
    11  C   -0.062763
    12  C   -0.085030
    13  N   -0.276416
    14  C    0.062138
    15  H    0.063240
    16  H    0.054035
    17  H    0.060986
    18  H    0.034663
    19  H    0.045492
 Sum of Mulliken charges =  -1.00000
 Mulliken charges with hydrogens summed into heavy atoms:
               1
     1  N   -0.247436
     2  C    0.066117
     3  C   -0.031207
     4  C   -0.020769
     5  C   -0.057059
     6  C   -0.017386
     7  C   -0.029833
     8  C   -0.013114
     9  C   -0.104274
    10  C   -0.228460
    11  C   -0.062763
    12  C   -0.039538
    13  N   -0.276416
    14  C    0.062138
 Electronic spatial extent (au):  <R**2>=           2847.6956
 Charge=             -1.0000 electrons
 Dipole moment (field-independent basis, Debye):
    X=             -5.0241    Y=              6.3755    Z=              0.0009  Tot=              8.1172
 Quadrupole moment (field-independent basis, Debye-Ang):
   XX=           -126.9841   YY=            -88.9931   ZZ=            -73.8116
   XY=             -1.6194   XZ=             -0.0002   YZ=             -0.0017
 Traceless Quadrupole moment (field-independent basis, Debye-Ang):
   XX=            -30.3878   YY=              7.6031   ZZ=             22.7847
   XY=             -1.6194   XZ=             -0.0002   YZ=             -0.0017
 Octapole moment (field-independent basis, Debye-Ang**2):
  XXX=           -141.3756  YYY=             39.8066  ZZZ=             -0.0019  XYY=             18.9060
  XXY=             64.3914  XXZ=              0.0149  XZZ=              2.0495  YZZ=             -3.1354
  YYZ=              0.0060  XYZ=              0.0038
 Hexadecapole moment (field-independent basis, Debye-Ang**3):
 XXXX=          -3804.3482 YYYY=           -995.9636 ZZZZ=            -57.9791 XXXY=            -81.3084
 XXXZ=              0.0460 YYYX=            -37.4777 YYYZ=             -0.0572 ZZZX=              0.0409
 ZZZY=             -0.0523 XXYY=           -729.3697 XXZZ=           -444.6636 YYZZ=           -168.3021
 XXYZ=             -0.0393 YYXZ=             -0.0014 ZZXY=              7.0470
 N-N= 7.054724931798D+02 E-N=-2.733142519497D+03  KE= 5.553539744962D+02
 Calling FoFJK, ICntrl=      2127 FMM=F ISym2X=0 I1Cent= 0 IOpClX= 0 NMat=1 NMatS=1 NMatT=0.
 ***** Axes restored to original set *****
 -------------------------------------------------------------------
 Center     Atomic                   Forces (Hartrees/Bohr)
 Number     Number              X              Y              Z
 -------------------------------------------------------------------
      1        7          -0.103045363    0.003951079   -0.000019663
      2        6           0.082286734   -0.006942333    0.000018202
      3        6           0.002754248    0.033177157   -0.000000561
      4        6          -0.020501387   -0.000096413   -0.000004211
      5        6           0.024623400   -0.001502864    0.000001767
      6        6           0.003909285    0.029558346    0.000020705
      7        6           0.022856866    0.002665719   -0.000012612
      8        6          -0.031805106   -0.019747099    0.000006400
      9        6           0.027837538   -0.008245722   -0.000008712
     10        6          -0.068505652   -0.062151947   -0.000005025
     11        6           0.000152504    0.054278103    0.000009665
     12        6           0.030925835   -0.023967770   -0.000000162
     13        7           0.057354930   -0.086376975   -0.000001465
     14        6          -0.030302582    0.056834666   -0.000000858
     15        1          -0.006012697    0.005129426    0.000002894
     16        1           0.002804836    0.006897539   -0.000003269
     17        1           0.007991403   -0.003091874   -0.000004745
     18        1          -0.012824475    0.011320455    0.000002284
     19        1           0.009499683    0.008310507   -0.000000634
 -------------------------------------------------------------------
 Cartesian Forces:  Max     0.103045363 RMS     0.030154151

 GradGradGradGradGradGradGradGradGradGradGradGradGradGradGradGradGradGrad
 Berny optimization.
 FormGI is forming the generalized inverse of G from B-inverse, IUseBI=4.
 Internal  Forces:  Max     0.103636933 RMS     0.020627021
 Search for a local minimum.
 Step number   1 out of a maximum of  102
 All quantities printed in internal units (Hartrees-Bohrs-Radians)
 Mixed Optimization -- RFO/linear search
 Second derivative matrix not updated -- first step.
 ITU=  0
     Eigenvalues ---    0.01603   0.01603   0.01865   0.01878   0.01926
     Eigenvalues ---    0.01941   0.01966   0.02040   0.02052   0.02094
     Eigenvalues ---    0.02117   0.02130   0.02166   0.02171   0.02191
     Eigenvalues ---    0.02202   0.04863   0.04863   0.16000   0.16000
     Eigenvalues ---    0.16000   0.16000   0.16000   0.22089   0.22979
     Eigenvalues ---    0.23515   0.23954   0.24916   0.25000   0.25000
     Eigenvalues ---    0.25000   0.34771   0.34900   0.34912   0.34917
     Eigenvalues ---    0.35112   0.38323   0.40040   0.40354   0.40787
     Eigenvalues ---    0.41017   0.43157   0.43669   0.45206   0.45498
     Eigenvalues ---    0.45655   0.45835   0.46823   0.47095   1.27271
     Eigenvalues ---    1.27623
 RFO step:  Lambda=-5.86851713D-02 EMin= 1.60312579D-02
 Linear search not attempted -- first point.
 Maximum step size (   0.300) exceeded in Quadratic search.
    -- Step size scaled by   0.842
 Iteration  1 RMS(Cart)=  0.04537311 RMS(Int)=  0.00101633
 Iteration  2 RMS(Cart)=  0.00170182 RMS(Int)=  0.00019210
 Iteration  3 RMS(Cart)=  0.00000091 RMS(Int)=  0.00019210
 Variable       Old X    -DE/DX   Delta X   Delta X   Delta X     New X
                                 (Linear)    (Quad)   (Total)
    R1        2.19360   0.10310   0.00000   0.06524   0.06524   2.25883
    R2        2.71499   0.02071   0.00000   0.03801   0.03801   2.75300
    R3        2.65152   0.00705   0.00000   0.01119   0.01121   2.66274
    R4        2.68394   0.03731   0.00000   0.06560   0.06564   2.74958
    R5        2.62792   0.03135   0.00000   0.04884   0.04882   2.67674
    R6        2.05837   0.00749   0.00000   0.01548   0.01548   2.07385
    R7        2.63101   0.00634   0.00000   0.00964   0.00960   2.64060
    R8        2.05494   0.00740   0.00000   0.01521   0.01521   2.07015
    R9        2.64927   0.03163   0.00000   0.05252   0.05250   2.70177
   R10        2.05819   0.00782   0.00000   0.01615   0.01615   2.07433
   R11        2.68172   0.03928   0.00000   0.06817   0.06790   2.74962
   R12        2.65320   0.02484   0.00000   0.04165   0.04126   2.69447
   R13        2.67892   0.02064   0.00000   0.03412   0.03423   2.71315
   R14        2.63794   0.01897   0.00000   0.03019   0.03057   2.66851
   R15        2.05810   0.01152   0.00000   0.02380   0.02380   2.08190
   R16        2.62313   0.06151   0.00000   0.09784   0.09812   2.72125
   R17        2.63582   0.02219   0.00000   0.03719   0.03710   2.67293
   R18        2.70194   0.03955   0.00000   0.07107   0.07107   2.77301
   R19        2.06049   0.00991   0.00000   0.02054   0.02054   2.08103
   R20        2.19257   0.10364   0.00000   0.06540   0.06540   2.25798
    A1        2.05464   0.00076   0.00000   0.00241   0.00242   2.05706
    A2        2.12261  -0.00403   0.00000  -0.01065  -0.01064   2.11197
    A3        2.10594   0.00327   0.00000   0.00823   0.00821   2.11415
    A4        2.10108   0.00291   0.00000   0.00531   0.00522   2.10631
    A5        2.10273  -0.00405   0.00000  -0.01263  -0.01259   2.09014
    A6        2.07937   0.00113   0.00000   0.00732   0.00736   2.08674
    A7        2.09018   0.00174   0.00000   0.00171   0.00154   2.09172
    A8        2.09891  -0.00171   0.00000  -0.00409  -0.00401   2.09491
    A9        2.09409  -0.00003   0.00000   0.00238   0.00246   2.09655
   A10        2.11187   0.00235   0.00000   0.00617   0.00601   2.11787
   A11        2.06881   0.00244   0.00000   0.01084   0.01092   2.07973
   A12        2.10251  -0.00479   0.00000  -0.01701  -0.01693   2.08558
   A13        2.09609  -0.00180   0.00000  -0.00252  -0.00221   2.09388
   A14        2.09079   0.01073   0.00000   0.02923   0.02967   2.12046
   A15        2.09631  -0.00892   0.00000  -0.02671  -0.02746   2.06885
   A16        2.06122  -0.00848   0.00000  -0.01890  -0.01878   2.04244
   A17        2.16821   0.00274   0.00000   0.00911   0.00926   2.17747
   A18        2.05376   0.00573   0.00000   0.00979   0.00952   2.06328
   A19        2.11902   0.02253   0.00000   0.06388   0.06432   2.18334
   A20        2.11536  -0.02427   0.00000  -0.08205  -0.08227   2.03309
   A21        2.04880   0.00174   0.00000   0.01818   0.01796   2.06675
   A22        2.09687  -0.04068   0.00000  -0.11017  -0.10915   1.98773
   A23        2.09078   0.02839   0.00000   0.08138   0.08152   2.17230
   A24        2.09306  -0.00910   0.00000  -0.02678  -0.02685   2.06622
   A25        2.09934  -0.01930   0.00000  -0.05461  -0.05468   2.04467
   A26        2.10962  -0.00706   0.00000  -0.01817  -0.01875   2.09087
   A27        2.09222  -0.00452   0.00000  -0.02193  -0.02164   2.07057
   A28        2.08135   0.01158   0.00000   0.04011   0.04039   2.12174
   A29        3.14701   0.00415   0.00000   0.04684   0.04684   3.19384
   A30        3.10765   0.00692   0.00000   0.05429   0.05429   3.16194
   A31        3.14153   0.00001   0.00000   0.00006   0.00006   3.14159
   A32        3.14158   0.00000   0.00000   0.00000   0.00000   3.14159
    D1       -3.14147   0.00000   0.00000  -0.00002  -0.00002  -3.14149
    D2        0.00006   0.00000   0.00000  -0.00001  -0.00001   0.00005
    D3        0.00002   0.00000   0.00000   0.00000   0.00000   0.00002
    D4        3.14155   0.00000   0.00000   0.00001   0.00001   3.14156
    D5        3.14146   0.00000   0.00000   0.00002   0.00002   3.14149
    D6       -0.00019   0.00000   0.00000   0.00004   0.00004  -0.00015
    D7       -0.00002   0.00000   0.00000   0.00000   0.00000  -0.00002
    D8        3.14151   0.00000   0.00000   0.00002   0.00002   3.14153
    D9        0.00005   0.00000   0.00000  -0.00001  -0.00001   0.00004
   D10       -3.14150   0.00000   0.00000  -0.00002  -0.00002  -3.14152
   D11       -3.14148   0.00000   0.00000  -0.00002  -0.00002  -3.14150
   D12        0.00016   0.00000   0.00000  -0.00003  -0.00003   0.00012
   D13       -0.00012   0.00000   0.00000   0.00003   0.00003  -0.00009
   D14       -3.14152   0.00000   0.00000  -0.00002  -0.00002  -3.14154
   D15        3.14143   0.00000   0.00000   0.00004   0.00004   3.14147
   D16        0.00003   0.00000   0.00000  -0.00001  -0.00001   0.00002
   D17        0.00012   0.00000   0.00000  -0.00003  -0.00003   0.00008
   D18       -3.14157   0.00000   0.00000  -0.00001  -0.00001  -3.14158
   D19        3.14151   0.00000   0.00000   0.00002   0.00002   3.14153
   D20       -0.00017   0.00000   0.00000   0.00005   0.00005  -0.00012
   D21       -0.00004   0.00000   0.00000   0.00002   0.00002  -0.00003
   D22       -3.14158   0.00000   0.00000   0.00000   0.00000  -3.14158
   D23       -3.14155   0.00000   0.00000  -0.00001  -0.00001  -3.14156
   D24        0.00011   0.00000   0.00000  -0.00003  -0.00003   0.00008
   D25       -3.14157   0.00000   0.00000  -0.00002  -0.00002  -3.14159
   D26        0.00007   0.00000   0.00000  -0.00003  -0.00003   0.00005
   D27       -0.00007   0.00000   0.00000   0.00000   0.00000  -0.00006
   D28        3.14158   0.00000   0.00000   0.00000   0.00000   3.14158
   D29        3.14159   0.00000   0.00000   0.00001   0.00001  -3.14159
   D30        0.00008   0.00000   0.00000  -0.00002  -0.00002   0.00006
   D31       -0.00007   0.00000   0.00000   0.00003   0.00003  -0.00004
   D32       -3.14158   0.00000   0.00000   0.00000   0.00000  -3.14158
   D33       -0.00001   0.00000   0.00000   0.00000   0.00000  -0.00001
   D34        3.14150   0.00000   0.00000   0.00002   0.00003   3.14152
   D35        0.00006   0.00000   0.00000  -0.00002  -0.00002   0.00003
   D36        3.14155   0.00000   0.00000   0.00002   0.00002   3.14157
   D37       -0.00002   0.00000   0.00000   0.00002   0.00002   0.00000
   D38        3.14152   0.00000   0.00000   0.00003   0.00003   3.14155
   D39       -3.14151   0.00000   0.00000  -0.00002  -0.00002  -3.14153
   D40        0.00003   0.00000   0.00000  -0.00002  -0.00002   0.00001
         Item               Value     Threshold  Converged?
 Maximum Force            0.103637     0.000450     NO 
 RMS     Force            0.020627     0.000300     NO 
 Maximum Displacement     0.182468     0.001800     NO 
 RMS     Displacement     0.044909     0.001200     NO 
 Predicted change in Energy=-3.125286D-02
 GradGradGradGradGradGradGradGradGradGradGradGradGradGradGradGradGradGrad

                          Input orientation:                          
 ---------------------------------------------------------------------
 Center     Atomic      Atomic             Coordinates (Angstroms)
 Number     Number       Type             X           Y           Z
 ---------------------------------------------------------------------
      1          7           0        0.986884   -0.015869   -0.063839
      2          6           0        2.180102   -0.086786   -0.063670
      3          6           0        3.636891   -0.097148   -0.063465
      4          6           0        4.304225    1.143866   -0.063293
      5          6           0        5.719438    1.203529   -0.063210
      6          6           0        6.465309    0.021896   -0.063344
      7          6           0        5.829745   -1.258783   -0.063460
      8          6           0        4.377543   -1.349547   -0.063542
      9          6           0        3.778944   -2.654546   -0.063638
     10          6           0        4.490608   -3.874218   -0.063707
     11          6           0        5.921728   -3.714335   -0.063691
     12          6           0        6.587712   -2.466482   -0.063576
     13          7           0        7.419496   -5.915182   -0.063757
     14          6           0        6.758362   -4.919885   -0.063730
     15          1           0        3.723075    2.074797   -0.063271
     16          1           0        6.227228    2.174209   -0.063009
     17          1           0        7.561390    0.081279   -0.063226
     18          1           0        2.677822   -2.690049   -0.063712
     19          1           0        7.686919   -2.399677   -0.063529
 ---------------------------------------------------------------------
                    Distance matrix (angstroms):
                    1          2          3          4          5
     1  N    0.000000
     2  C    1.195324   0.000000
     3  C    2.651253   1.456825   0.000000
     4  C    3.514219   2.454873   1.409060   0.000000
     5  C    4.887126   3.767202   2.455354   1.416470   0.000000
     6  C    5.478555   4.286584   2.830922   2.434974   1.397347
     7  C    4.999813   3.833206   2.481533   2.846038   2.464781
     8  C    3.643523   2.534425   1.455015   2.494491   2.884247
     9  C    3.841642   3.024844   2.561340   3.834560   4.318594
    10  C    5.211807   4.436561   3.872350   5.021544   5.224321
    11  C    6.166954   5.211417   4.278378   5.120394   4.922022
    12  C    6.113491   5.008989   3.784321   4.271876   3.771323
    13  N    8.728137   7.837183   6.939569   7.715897   7.318896
    14  C    7.573594   6.657274   5.744769   6.541549   6.210922
    15  H    3.443491   2.655788   2.173654   1.097436   2.178204
    16  H    5.679582   4.635874   3.445128   2.181639   1.095478
    17  H    6.575223   5.383911   3.928553   3.426108   2.156903
    18  H    3.163939   2.650416   2.764589   4.164624   4.940787
    19  H    7.111471   5.972813   4.658795   4.898911   4.105372
                    6          7          8          9         10
     6  C    0.000000
     7  C    1.429713   0.000000
     8  C    2.497924   1.455036   0.000000
     9  C    3.792083   2.480713   1.435737   0.000000
    10  C    4.367968   2.938331   2.527201   1.412114   0.000000
    11  C    3.775566   2.457274   2.824310   2.390539   1.440023
    12  C    2.491386   1.425851   2.476366   2.815057   2.525780
    13  N    6.013266   4.920301   5.486210   4.887266   3.569862
    14  C    4.950463   3.777036   4.291341   3.742819   2.497223
    15  H    3.425528   3.943451   3.486325   4.729673   5.998324
    16  H    2.165441   3.455926   3.979723   5.413961   6.292799
    17  H    1.097689   2.189603   3.490580   4.668151   5.007560
    18  H    4.658294   3.461668   2.164716   1.101694   2.165283
    19  H    2.712259   2.179619   3.471995   3.916278   3.520039
                   11         12         13         14         15
    11  C    0.000000
    12  C    1.414451   0.000000
    13  N    2.662149   3.547590   0.000000
    14  C    1.467415   2.459331   1.194870   0.000000
    15  H    6.192586   5.369297   8.803595   7.624863   0.000000
    16  H    5.896463   4.654671   8.176781   7.113949   2.506125
    17  H    4.134631   2.727477   5.998139   5.065224   4.325132
    18  H    3.401777   3.916277   5.734540   4.650051   4.878147
    19  H    2.200960   1.101236   3.525661   2.685827   5.977707
                   16         17         18         19
    16  H    0.000000
    17  H    2.482004   0.000000
    18  H    6.021569   5.615113   0.000000
    19  H    4.801160   2.484130   5.017507   0.000000
 Stoichiometry    C12H5N2(1-)
 Framework group  C1[X(C12H5N2)]
 Deg. of freedom    51
 Full point group                 C1      NOp   1
 Largest Abelian subgroup         C1      NOp   1
 Largest concise Abelian subgroup C1      NOp   1
                         Standard orientation:                         
 ---------------------------------------------------------------------
 Center     Atomic      Atomic             Coordinates (Angstroms)
 Number     Number       Type             X           Y           Z
 ---------------------------------------------------------------------
      1          7           0       -3.551798   -2.341014   -0.000280
      2          6           0       -2.826609   -1.390804   -0.000110
      3          6           0       -2.004461   -0.188135    0.000094
      4          6           0       -2.661247    1.058493    0.000266
      5          6           0       -1.920404    2.265780    0.000349
      6          6           0       -0.523664    2.224614    0.000215
      7          6           0        0.183768    0.982189    0.000099
      8          6           0       -0.551932   -0.273150    0.000017
      9          6           0        0.196317   -1.498493   -0.000079
     10          6           0        1.605510   -1.589277   -0.000148
     11          6           0        2.272100   -0.312827   -0.000132
     12          6           0        1.608887    0.936501   -0.000016
     13          7           0        4.934215   -0.299456   -0.000198
     14          6           0        3.739368   -0.292059   -0.000171
     15          1           0       -3.758032    1.096295    0.000288
     16          1           0       -2.442037    3.229092    0.000550
     17          1           0        0.039190    3.167013    0.000333
     18          1           0       -0.389160   -2.431738   -0.000153
     19          1           0        2.167330    1.885638    0.000030
 ---------------------------------------------------------------------
 Rotational constants (GHZ):      1.4457607      0.4530306      0.3449425
 Standard basis: STO-3G (5D, 7F)
 There are    75 symmetry adapted cartesian basis functions of A   symmetry.
 There are    75 symmetry adapted basis functions of A   symmetry.
    75 basis functions,   225 primitive gaussians,    75 cartesian basis functions
    46 alpha electrons       46 beta electrons
       nuclear repulsion energy       693.5953679712 Hartrees.
 NAtoms=   19 NActive=   19 NUniq=   19 SFac= 1.00D+00 NAtFMM=   60 NAOKFM=F Big=F
 Integral buffers will be    131072 words long.
 Raffenetti 2 integral format.
 Two-electron integral symmetry is turned on.
 One-electron integrals computed using PRISM.
 NBasis=    75 RedAO= T EigKep=  1.73D-01  NBF=    75
 NBsUse=    75 1.00D-06 EigRej= -1.00D+00 NBFU=    75
 Initial guess from the checkpoint file:  "/tmp/bnp.472659.sequoia/Gau-24742.chk"
 B after Tr=     0.000000    0.000000    0.000000
         Rot=    1.000000    0.000002   -0.000001   -0.000777 Ang=   0.09 deg.
 ExpMin= 1.69D-01 ExpMax= 9.91D+01 ExpMxC= 9.91D+01 IAcc=1 IRadAn=         1 AccDes= 0.00D+00
 Harris functional with IExCor=  402 and IRadAn=       1 diagonalized for initial guess.
 HarFok:  IExCor=  402 AccDes= 0.00D+00 IRadAn=         1 IDoV= 1 UseB2=F ITyADJ=14
 ICtDFT=  3500011 ScaDFX=  1.000000  1.000000  1.000000  1.000000
 FoFCou: FMM=F IPFlag=           0 FMFlag=      100000 FMFlg1=           0
         NFxFlg=           0 DoJE=T BraDBF=F KetDBF=T FulRan=T
         wScrn=  0.000000 ICntrl=     500 IOpCl=  0 I1Cent=   200000004 NGrid=           0
         NMat0=    1 NMatS0=      1 NMatT0=    0 NMatD0=    1 NMtDS0=    0 NMtDT0=    0
 Petite list used in FoFCou.
 Keep R1 ints in memory in canonical form, NReq=4993994.
 Requested convergence on RMS density matrix=1.00D-08 within 128 cycles.
 Requested convergence on MAX density matrix=1.00D-06.
 Requested convergence on             energy=1.00D-06.
 No special actions if energy rises.
 Integral accuracy reduced to 1.0D-05 until final iterations.
 Initial convergence to 1.0D-05 achieved.  Increase integral accuracy.
 SCF Done:  E(RB3LYP) =  -562.511364689     A.U. after   22 cycles
            NFock= 22  Conv=0.61D-09     -V/T= 2.0139
 Calling FoFJK, ICntrl=      2127 FMM=F ISym2X=0 I1Cent= 0 IOpClX= 0 NMat=1 NMatS=1 NMatT=0.
 ***** Axes restored to original set *****
 -------------------------------------------------------------------
 Center     Atomic                   Forces (Hartrees/Bohr)
 Number     Number              X              Y              Z
 -------------------------------------------------------------------
      1        7          -0.011727888    0.000374948   -0.000002089
      2        6           0.007336093   -0.001104430    0.000005319
      3        6           0.004906999    0.009578490   -0.000003896
      4        6          -0.006179495   -0.003041006   -0.000004140
      5        6           0.007847928   -0.004921292    0.000001547
      6        6          -0.004159158    0.009770157    0.000013492
      7        6           0.005518902    0.003416112   -0.000009189
      8        6          -0.008618687   -0.007838736    0.000007972
      9        6           0.013720226    0.007135868   -0.000004230
     10        6          -0.024644130   -0.030001969   -0.000006581
     11        6           0.006507146    0.031737776    0.000007985
     12        6           0.005565397   -0.013368705   -0.000000071
     13        7           0.006370163   -0.009347316   -0.000001164
     14        6          -0.000095674    0.001351201    0.000002159
     15        1          -0.001110667    0.000390846    0.000001464
     16        1          -0.000359197    0.001394776   -0.000003166
     17        1           0.001473596   -0.001908972   -0.000003630
     18        1          -0.002442452    0.004696560    0.000000521
     19        1           0.000090897    0.001685694   -0.000002303
 -------------------------------------------------------------------
 Cartesian Forces:  Max     0.031737776 RMS     0.008280477

 GradGradGradGradGradGradGradGradGradGradGradGradGradGradGradGradGradGrad
 Berny optimization.
 Using GEDIIS/GDIIS optimizer.
 FormGI is forming the generalized inverse of G from B-inverse, IUseBI=4.
 Internal  Forces:  Max     0.020886465 RMS     0.004678437
 Search for a local minimum.
 Step number   2 out of a maximum of  102
 All quantities printed in internal units (Hartrees-Bohrs-Radians)
 Mixed Optimization -- RFO/linear search
 Update second derivatives using D2CorX and points    1    2
 DE= -3.00D-02 DEPred=-3.13D-02 R= 9.61D-01
 TightC=F SS=  1.41D+00  RLast= 3.00D-01 DXNew= 5.0454D-01 8.9995D-01
 Trust test= 9.61D-01 RLast= 3.00D-01 DXMaxT set to 5.05D-01
 ITU=  1  0
 Use linear search instead of GDIIS.
     Eigenvalues ---    0.01603   0.01618   0.01866   0.01879   0.01927
     Eigenvalues ---    0.01946   0.01970   0.02041   0.02048   0.02096
     Eigenvalues ---    0.02118   0.02131   0.02166   0.02172   0.02191
     Eigenvalues ---    0.02202   0.04863   0.04920   0.15907   0.16000
     Eigenvalues ---    0.16000   0.16000   0.16089   0.21825   0.22101
     Eigenvalues ---    0.23190   0.23622   0.24433   0.24926   0.25000
     Eigenvalues ---    0.25021   0.34801   0.34903   0.34913   0.34979
     Eigenvalues ---    0.35138   0.38786   0.40068   0.40406   0.40760
     Eigenvalues ---    0.40901   0.42922   0.43827   0.44927   0.45326
     Eigenvalues ---    0.45545   0.46442   0.46858   0.49789   1.27435
     Eigenvalues ---    1.34759
 RFO step:  Lambda=-3.92591796D-03 EMin= 1.60312579D-02
 Quartic linear search produced a step of  0.35085.
 Iteration  1 RMS(Cart)=  0.03142251 RMS(Int)=  0.00102765
 Iteration  2 RMS(Cart)=  0.00153248 RMS(Int)=  0.00025384
 Iteration  3 RMS(Cart)=  0.00000067 RMS(Int)=  0.00025384
 Variable       Old X    -DE/DX   Delta X   Delta X   Delta X     New X
                                 (Linear)    (Quad)   (Total)
    R1        2.25883   0.01173   0.02289  -0.01069   0.01219   2.27103
    R2        2.75300   0.00439   0.01334   0.00079   0.01413   2.76713
    R3        2.66274  -0.00355   0.00393  -0.01453  -0.01054   2.65219
    R4        2.74958   0.00552   0.02303  -0.00632   0.01671   2.76629
    R5        2.67674   0.00559   0.01713  -0.00189   0.01528   2.69202
    R6        2.07385   0.00092   0.00543  -0.00216   0.00327   2.07713
    R7        2.64060  -0.00358   0.00337  -0.01381  -0.01045   2.63016
    R8        2.07015   0.00107   0.00534  -0.00151   0.00383   2.07398
    R9        2.70177   0.00395   0.01842  -0.00742   0.01095   2.71271
   R10        2.07433   0.00137   0.00566  -0.00068   0.00498   2.07931
   R11        2.74962   0.00420   0.02382  -0.01296   0.01039   2.76001
   R12        2.69447   0.00342   0.01448  -0.00525   0.00873   2.70320
   R13        2.71315  -0.00095   0.01201  -0.01641  -0.00430   2.70885
   R14        2.66851   0.00885   0.01073   0.01496   0.02617   2.69468
   R15        2.08190   0.00229   0.00835   0.00003   0.00838   2.09028
   R16        2.72125   0.02089   0.03443   0.02456   0.05938   2.78062
   R17        2.67293  -0.00333   0.01302  -0.02204  -0.00907   2.66385
   R18        2.77301   0.01015   0.02493   0.00720   0.03214   2.80515
   R19        2.08103   0.00019   0.00721  -0.00679   0.00042   2.08145
   R20        2.25798   0.01131   0.02295  -0.01123   0.01172   2.26970
    A1        2.05706   0.00065   0.00085   0.00287   0.00376   2.06082
    A2        2.11197  -0.00215  -0.00373  -0.00717  -0.01086   2.10111
    A3        2.11415   0.00150   0.00288   0.00429   0.00710   2.12126
    A4        2.10631   0.00007   0.00183  -0.00261  -0.00081   2.10549
    A5        2.09014  -0.00079  -0.00442  -0.00110  -0.00550   2.08464
    A6        2.08674   0.00073   0.00258   0.00371   0.00631   2.09305
    A7        2.09172   0.00017   0.00054  -0.00096  -0.00051   2.09121
    A8        2.09491  -0.00108  -0.00141  -0.00648  -0.00784   2.08707
    A9        2.09655   0.00091   0.00086   0.00744   0.00835   2.10490
   A10        2.11787   0.00081   0.00211   0.00124   0.00316   2.12103
   A11        2.07973   0.00166   0.00383   0.01097   0.01490   2.09463
   A12        2.08558  -0.00247  -0.00594  -0.01221  -0.01805   2.06753
   A13        2.09388  -0.00015  -0.00077   0.00145   0.00100   2.09488
   A14        2.12046   0.00430   0.01041   0.01459   0.02568   2.14613
   A15        2.06885  -0.00414  -0.00964  -0.01604  -0.02667   2.04218
   A16        2.04244  -0.00239  -0.00659  -0.00341  -0.00994   2.03250
   A17        2.17747  -0.00077   0.00325  -0.00431  -0.00073   2.17673
   A18        2.06328   0.00316   0.00334   0.00773   0.01067   2.07395
   A19        2.18334   0.01005   0.02257   0.03378   0.05682   2.24016
   A20        2.03309  -0.01000  -0.02887  -0.03844  -0.06755   1.96554
   A21        2.06675  -0.00006   0.00630   0.00467   0.01073   2.07748
   A22        1.98773  -0.02060  -0.03829  -0.06534  -0.10223   1.88550
   A23        2.17230   0.01290   0.02860   0.04129   0.07013   2.24243
   A24        2.06622  -0.00548  -0.00942  -0.02069  -0.03023   2.03599
   A25        2.04467  -0.00742  -0.01918  -0.02060  -0.03990   2.00477
   A26        2.09087  -0.00137  -0.00658  -0.00142  -0.00872   2.08216
   A27        2.07057  -0.00106  -0.00759  -0.00166  -0.00890   2.06167
   A28        2.12174   0.00243   0.01417   0.00308   0.01761   2.13936
   A29        3.19384  -0.00072   0.01643  -0.07939  -0.06296   3.13089
   A30        3.16194  -0.00030   0.01905  -0.03286  -0.01381   3.14812
   A31        3.14159   0.00000   0.00002  -0.00010  -0.00008   3.14151
   A32        3.14159   0.00000   0.00000   0.00004   0.00004   3.14163
    D1       -3.14149   0.00000  -0.00001  -0.00010  -0.00011   3.14158
    D2        0.00005   0.00000   0.00000  -0.00006  -0.00007  -0.00002
    D3        0.00002   0.00000   0.00000  -0.00004  -0.00004  -0.00002
    D4        3.14156   0.00000   0.00000   0.00001   0.00001   3.14157
    D5        3.14149   0.00000   0.00001   0.00009   0.00010   3.14159
    D6       -0.00015   0.00000   0.00001   0.00019   0.00020   0.00005
    D7       -0.00002   0.00000   0.00000   0.00002   0.00002   0.00000
    D8        3.14153   0.00000   0.00001   0.00012   0.00013  -3.14153
    D9        0.00004   0.00000   0.00000  -0.00002  -0.00002   0.00002
   D10       -3.14152   0.00000  -0.00001  -0.00006  -0.00007  -3.14159
   D11       -3.14150   0.00000  -0.00001  -0.00006  -0.00007  -3.14157
   D12        0.00012   0.00000  -0.00001  -0.00010  -0.00011   0.00001
   D13       -0.00009   0.00000   0.00001   0.00009   0.00010   0.00001
   D14       -3.14154   0.00000  -0.00001  -0.00007  -0.00008   3.14157
   D15        3.14147   0.00000   0.00001   0.00013   0.00015  -3.14157
   D16        0.00002   0.00000   0.00000  -0.00003  -0.00003  -0.00001
   D17        0.00008   0.00000  -0.00001  -0.00010  -0.00012  -0.00004
   D18       -3.14158   0.00000   0.00000  -0.00003  -0.00003   3.14158
   D19        3.14153   0.00000   0.00001   0.00006   0.00006  -3.14159
   D20       -0.00012   0.00000   0.00002   0.00013   0.00015   0.00003
   D21       -0.00003   0.00000   0.00001   0.00005   0.00005   0.00003
   D22       -3.14158   0.00000   0.00000  -0.00004  -0.00004   3.14156
   D23       -3.14156   0.00000   0.00000  -0.00003  -0.00003  -3.14159
   D24        0.00008   0.00000  -0.00001  -0.00012  -0.00013  -0.00005
   D25       -3.14159   0.00000  -0.00001  -0.00007  -0.00007   3.14152
   D26        0.00005   0.00000  -0.00001  -0.00007  -0.00008  -0.00003
   D27       -0.00006   0.00000   0.00000   0.00001   0.00001  -0.00005
   D28        3.14158   0.00000   0.00000   0.00001   0.00001   3.14159
   D29       -3.14159   0.00000   0.00000   0.00001   0.00001  -3.14157
   D30        0.00006   0.00000  -0.00001  -0.00003  -0.00004   0.00002
   D31       -0.00004   0.00000   0.00001   0.00011   0.00012   0.00008
   D32       -3.14158   0.00000   0.00000   0.00007   0.00007  -3.14151
   D33       -0.00001   0.00000   0.00000   0.00001   0.00001   0.00000
   D34        3.14152   0.00000   0.00001   0.00005   0.00006   3.14159
   D35        0.00003   0.00000  -0.00001  -0.00014  -0.00015  -0.00011
   D36        3.14157   0.00000   0.00001  -0.00003  -0.00002   3.14155
   D37        0.00000   0.00000   0.00001   0.00013   0.00014   0.00014
   D38        3.14155   0.00000   0.00001   0.00013   0.00014  -3.14149
   D39       -3.14153   0.00000  -0.00001   0.00003   0.00002  -3.14152
   D40        0.00001   0.00000  -0.00001   0.00003   0.00002   0.00003
         Item               Value     Threshold  Converged?
 Maximum Force            0.020886     0.000450     NO 
 RMS     Force            0.004678     0.000300     NO 
 Maximum Displacement     0.170873     0.001800     NO 
 RMS     Displacement     0.031721     0.001200     NO 
 Predicted change in Energy=-3.586209D-03
 GradGradGradGradGradGradGradGradGradGradGradGradGradGradGradGradGradGrad

                          Input orientation:                          
 ---------------------------------------------------------------------
 Center     Atomic      Atomic             Coordinates (Angstroms)
 Number     Number       Type             X           Y           Z
 ---------------------------------------------------------------------
      1          7           0        0.982888   -0.106292   -0.063691
      2          6           0        2.184583   -0.092265   -0.063530
      3          6           0        3.648884   -0.090854   -0.063457
      4          6           0        4.308234    1.148104   -0.063311
      5          6           0        5.731307    1.213092   -0.063215
      6          6           0        6.477746    0.038363   -0.063286
      7          6           0        5.847530   -1.251406   -0.063471
      8          6           0        4.390527   -1.352936   -0.063545
      9          6           0        3.788296   -2.653755   -0.063766
     10          6           0        4.431362   -3.926481   -0.063844
     11          6           0        5.885582   -3.702012   -0.063659
     12          6           0        6.584154   -2.477631   -0.063563
     13          7           0        7.435911   -5.894792   -0.063673
     14          6           0        6.746077   -4.911582   -0.063647
     15          1           0        3.717043    2.074746   -0.063273
     16          1           0        6.228978    2.191274   -0.063097
     17          1           0        7.577090    0.084808   -0.063238
     18          1           0        2.683000   -2.610810   -0.063889
     19          1           0        7.684229   -2.422498   -0.063515
 ---------------------------------------------------------------------
                    Distance matrix (angstroms):
                    1          2          3          4          5
     1  N    0.000000
     2  C    1.201777   0.000000
     3  C    2.666041   1.464301   0.000000
     4  C    3.554073   2.459351   1.403481   0.000000
     5  C    4.928311   3.779313   2.456982   1.424556   0.000000
     6  C    5.496761   4.295149   2.831811   2.436864   1.391818
     7  C    4.997602   3.841976   2.486146   2.850803   2.467237
     8  C    3.628515   2.540763   1.463860   2.502394   2.895202
     9  C    3.789444   3.022106   2.566690   3.837247   4.327562
    10  C    5.146437   4.444010   3.914628   5.076079   5.301422
    11  C    6.079935   5.169880   4.247739   5.100162   4.917525
    12  C    6.082551   5.004617   3.783188   4.280861   3.787979
    13  N    8.668808   7.825967   6.930171   7.706150   7.309424
    14  C    7.503676   6.635739   5.729923   6.531682   6.208171
    15  H    3.497503   2.654123   2.166672   1.099169   2.190824
    16  H    5.727151   4.644532   3.444559   2.185740   1.097505
    17  H    6.596970   5.395413   3.932131   3.437443   2.163316
    18  H    3.027043   2.567389   2.698724   4.095219   4.890235
    19  H    7.090330   5.972947   4.660534   4.913913   4.126914
                    6          7          8          9         10
     6  C    0.000000
     7  C    1.435506   0.000000
     8  C    2.508425   1.460536   0.000000
     9  C    3.805343   2.491390   1.433461   0.000000
    10  C    4.461803   3.026807   2.573869   1.425961   0.000000
    11  C    3.786960   2.450901   2.784484   2.344664   1.471443
    12  C    2.518244   1.430469   2.465145   2.801399   2.594934
    13  N    6.010026   4.907544   5.468347   4.879489   3.591875
    14  C    4.957213   3.768855   4.267619   3.721055   2.515617
    15  H    3.430501   3.949970   3.493220   4.729038   6.043590
    16  H    2.167236   3.463748   3.992659   5.425056   6.376390
    17  H    1.100324   2.185600   3.495896   4.674899   5.097651
    18  H    4.627982   3.444158   2.120824   1.106131   2.188095
    19  H    2.740701   2.178284   3.463010   3.902790   3.583729
                   11         12         13         14         15
    11  C    0.000000
    12  C    1.409649   0.000000
    13  N    2.685480   3.521715   0.000000
    14  C    1.484422   2.439331   1.201072   0.000000
    15  H    6.170373   5.380006   8.794516   7.614711   0.000000
    16  H    5.903282   4.682396   8.175644   7.121654   2.514637
    17  H    4.147433   2.748093   5.981266   5.065026   4.342789
    18  H    3.383379   3.903427   5.777084   4.669277   4.798299
    19  H    2.207326   1.101456   3.481162   2.660013   5.996981
                   16         17         18         19
    16  H    0.000000
    17  H    2.500921   0.000000
    18  H    5.969420   5.587349   0.000000
    19  H    4.837835   2.509594   5.004774   0.000000
 Stoichiometry    C12H5N2(1-)
 Framework group  C1[X(C12H5N2)]
 Deg. of freedom    51
 Full point group                 C1      NOp   1
 Largest Abelian subgroup         C1      NOp   1
 Largest concise Abelian subgroup C1      NOp   1
                         Standard orientation:                         
 ---------------------------------------------------------------------
 Center     Atomic      Atomic             Coordinates (Angstroms)
 Number     Number       Type             X           Y           Z
 ---------------------------------------------------------------------
      1          7           0       -3.477154   -2.399740   -0.000149
      2          6           0       -2.820072   -1.393504    0.000012
      3          6           0       -2.006370   -0.176102    0.000085
      4          6           0       -2.668835    1.061192    0.000231
      5          6           0       -1.930898    2.279720    0.000327
      6          6           0       -0.539485    2.246170    0.000256
      7          6           0        0.181411    1.004805    0.000071
      8          6           0       -0.545047   -0.262249   -0.000003
      9          6           0        0.200603   -1.486511   -0.000224
     10          6           0        1.615912   -1.660484   -0.000302
     11          6           0        2.238676   -0.327327   -0.000117
     12          6           0        1.610149    0.934443   -0.000021
     13          7           0        4.923299   -0.259503   -0.000131
     14          6           0        3.722509   -0.285502   -0.000105
     15          1           0       -3.767732    1.085671    0.000269
     16          1           0       -2.466672    3.237563    0.000445
     17          1           0        0.033705    3.185407    0.000304
     18          1           0       -0.450169   -2.380950   -0.000347
     19          1           0        2.176527    1.879124    0.000027
 ---------------------------------------------------------------------
 Rotational constants (GHZ):      1.4121556      0.4574171      0.3455036
 Standard basis: STO-3G (5D, 7F)
 There are    75 symmetry adapted cartesian basis functions of A   symmetry.
 There are    75 symmetry adapted basis functions of A   symmetry.
    75 basis functions,   225 primitive gaussians,    75 cartesian basis functions
    46 alpha electrons       46 beta electrons
       nuclear repulsion energy       692.1249120551 Hartrees.
 NAtoms=   19 NActive=   19 NUniq=   19 SFac= 1.00D+00 NAtFMM=   60 NAOKFM=F Big=F
 Integral buffers will be    131072 words long.
 Raffenetti 2 integral format.
 Two-electron integral symmetry is turned on.
 One-electron integrals computed using PRISM.
 NBasis=    75 RedAO= T EigKep=  1.76D-01  NBF=    75
 NBsUse=    75 1.00D-06 EigRej= -1.00D+00 NBFU=    75
 Initial guess from the checkpoint file:  "/tmp/bnp.472659.sequoia/Gau-24742.chk"
 B after Tr=     0.000000    0.000000    0.000000
         Rot=    0.999998    0.000003   -0.000002   -0.002212 Ang=   0.25 deg.
 ExpMin= 1.69D-01 ExpMax= 9.91D+01 ExpMxC= 9.91D+01 IAcc=1 IRadAn=         1 AccDes= 0.00D+00
 Harris functional with IExCor=  402 and IRadAn=       1 diagonalized for initial guess.
 HarFok:  IExCor=  402 AccDes= 0.00D+00 IRadAn=         1 IDoV= 1 UseB2=F ITyADJ=14
 ICtDFT=  3500011 ScaDFX=  1.000000  1.000000  1.000000  1.000000
 FoFCou: FMM=F IPFlag=           0 FMFlag=      100000 FMFlg1=           0
         NFxFlg=           0 DoJE=T BraDBF=F KetDBF=T FulRan=T
         wScrn=  0.000000 ICntrl=     500 IOpCl=  0 I1Cent=   200000004 NGrid=           0
         NMat0=    1 NMatS0=      1 NMatT0=    0 NMatD0=    1 NMtDS0=    0 NMtDT0=    0
 Petite list used in FoFCou.
 Keep R1 ints in memory in canonical form, NReq=4993994.
 Requested convergence on RMS density matrix=1.00D-08 within 128 cycles.
 Requested convergence on MAX density matrix=1.00D-06.
 Requested convergence on             energy=1.00D-06.
 No special actions if energy rises.
 Integral accuracy reduced to 1.0D-05 until final iterations.
 Initial convergence to 1.0D-05 achieved.  Increase integral accuracy.
 SCF Done:  E(RB3LYP) =  -562.515043535     A.U. after   16 cycles
            NFock= 16  Conv=0.10D-07     -V/T= 2.0140
 Calling FoFJK, ICntrl=      2127 FMM=F ISym2X=0 I1Cent= 0 IOpClX= 0 NMat=1 NMatS=1 NMatT=0.
 ***** Axes restored to original set *****
 -------------------------------------------------------------------
 Center     Atomic                   Forces (Hartrees/Bohr)
 Number     Number              X              Y              Z
 -------------------------------------------------------------------
      1        7           0.003596936    0.002231283    0.000003956
      2        6          -0.003360105   -0.004711169   -0.000006911
      3        6          -0.000430051    0.002132089    0.000004144
      4        6          -0.000183608   -0.000343142    0.000000006
      5        6           0.000619649    0.000310144    0.000000065
      6        6          -0.000024318   -0.000840240   -0.000004206
      7        6          -0.001086232    0.002323052    0.000002361
      8        6           0.001999748   -0.001559465    0.000000749
      9        6          -0.004583543    0.006679242    0.000002224
     10        6          -0.004841251   -0.002814907   -0.000002477
     11        6           0.009451585    0.002363294   -0.000000651
     12        6          -0.001260745   -0.001170552    0.000001135
     13        7          -0.002307363    0.002844142    0.000000412
     14        6           0.003101666   -0.003691027    0.000001639
     15        1           0.000639907   -0.000332793   -0.000000079
     16        1          -0.000372971   -0.000345942    0.000000328
     17        1          -0.000509130    0.000013810    0.000001177
     18        1           0.000264875   -0.001782144   -0.000002049
     19        1          -0.000715048   -0.001305676   -0.000001823
 -------------------------------------------------------------------
 Cartesian Forces:  Max     0.009451585 RMS     0.002326416

 GradGradGradGradGradGradGradGradGradGradGradGradGradGradGradGradGradGrad
 Berny optimization.
 Using GEDIIS/GDIIS optimizer.
 FormGI is forming the generalized inverse of G from B-inverse, IUseBI=4.
 Internal  Forces:  Max     0.006974246 RMS     0.001312711
 Search for a local minimum.
 Step number   3 out of a maximum of  102
 All quantities printed in internal units (Hartrees-Bohrs-Radians)
 Mixed Optimization -- RFO/linear search
 Update second derivatives using D2CorX and points    1    2    3
 DE= -3.68D-03 DEPred=-3.59D-03 R= 1.03D+00
 TightC=F SS=  1.41D+00  RLast= 2.00D-01 DXNew= 8.4853D-01 5.9937D-01
 Trust test= 1.03D+00 RLast= 2.00D-01 DXMaxT set to 5.99D-01
 ITU=  1  1  0
 Use linear search instead of GDIIS.
     Eigenvalues ---    0.01603   0.01711   0.01867   0.01879   0.01928
     Eigenvalues ---    0.01950   0.01974   0.02040   0.02045   0.02097
     Eigenvalues ---    0.02119   0.02132   0.02166   0.02172   0.02190
     Eigenvalues ---    0.02202   0.04863   0.04937   0.15868   0.16000
     Eigenvalues ---    0.16000   0.16003   0.16432   0.20883   0.22099
     Eigenvalues ---    0.23135   0.23588   0.24355   0.24930   0.25018
     Eigenvalues ---    0.25130   0.34786   0.34894   0.34912   0.34987
     Eigenvalues ---    0.35147   0.38021   0.38954   0.40167   0.40502
     Eigenvalues ---    0.40868   0.42332   0.43720   0.44249   0.45305
     Eigenvalues ---    0.45526   0.46317   0.46897   0.49811   1.27439
     Eigenvalues ---    1.38130
 RFO step:  Lambda=-1.53663753D-03 EMin= 1.60312579D-02
 Quartic linear search produced a step of -0.05757.
 Iteration  1 RMS(Cart)=  0.04025207 RMS(Int)=  0.00784447
 Iteration  2 RMS(Cart)=  0.01464990 RMS(Int)=  0.00048893
 Iteration  3 RMS(Cart)=  0.00051432 RMS(Int)=  0.00000563
 Iteration  4 RMS(Cart)=  0.00000042 RMS(Int)=  0.00000563
 Variable       Old X    -DE/DX   Delta X   Delta X   Delta X     New X
                                 (Linear)    (Quad)   (Total)
    R1        2.27103  -0.00362  -0.00070   0.00035  -0.00035   2.27068
    R2        2.76713  -0.00024  -0.00081   0.00288   0.00206   2.76919
    R3        2.65219  -0.00022   0.00061  -0.00285  -0.00225   2.64995
    R4        2.76629  -0.00071  -0.00096   0.00252   0.00155   2.76785
    R5        2.69202  -0.00014  -0.00088   0.00355   0.00267   2.69469
    R6        2.07713  -0.00063  -0.00019  -0.00088  -0.00107   2.07606
    R7        2.63016  -0.00047   0.00060  -0.00339  -0.00279   2.62736
    R8        2.07398  -0.00048  -0.00022  -0.00034  -0.00056   2.07342
    R9        2.71271  -0.00107  -0.00063   0.00039  -0.00023   2.71248
   R10        2.07931  -0.00051  -0.00029  -0.00015  -0.00044   2.07887
   R11        2.76001   0.00000  -0.00060   0.00209   0.00150   2.76151
   R12        2.70320   0.00136  -0.00050   0.00460   0.00410   2.70730
   R13        2.70885  -0.00093   0.00025  -0.00294  -0.00269   2.70616
   R14        2.69468   0.00360  -0.00151   0.01401   0.01249   2.70717
   R15        2.09028  -0.00033  -0.00048   0.00114   0.00066   2.09094
   R16        2.78062   0.00697  -0.00342   0.02847   0.02504   2.80567
   R17        2.66385  -0.00296   0.00052  -0.00811  -0.00759   2.65626
   R18        2.80515   0.00115  -0.00185   0.01042   0.00857   2.81373
   R19        2.08145  -0.00078  -0.00002  -0.00198  -0.00200   2.07945
   R20        2.26970  -0.00365  -0.00067   0.00022  -0.00045   2.26924
    A1        2.06082   0.00106  -0.00022   0.00493   0.00471   2.06553
    A2        2.10111  -0.00081   0.00063  -0.00561  -0.00499   2.09612
    A3        2.12126  -0.00025  -0.00041   0.00068   0.00028   2.12153
    A4        2.10549   0.00020   0.00005   0.00082   0.00087   2.10636
    A5        2.08464   0.00028   0.00032   0.00038   0.00070   2.08534
    A6        2.09305  -0.00047  -0.00036  -0.00120  -0.00157   2.09148
    A7        2.09121  -0.00015   0.00003  -0.00078  -0.00075   2.09047
    A8        2.08707  -0.00010   0.00045  -0.00259  -0.00214   2.08493
    A9        2.10490   0.00026  -0.00048   0.00336   0.00288   2.10778
   A10        2.12103   0.00002  -0.00018   0.00045   0.00027   2.12130
   A11        2.09463  -0.00005  -0.00086   0.00350   0.00264   2.09727
   A12        2.06753   0.00002   0.00104  -0.00395  -0.00291   2.06462
   A13        2.09488   0.00019  -0.00006   0.00126   0.00119   2.09607
   A14        2.14613  -0.00084  -0.00148   0.00416   0.00267   2.14880
   A15        2.04218   0.00064   0.00154  -0.00542  -0.00386   2.03831
   A16        2.03250   0.00000   0.00057  -0.00243  -0.00186   2.03064
   A17        2.17673  -0.00134   0.00004  -0.00458  -0.00455   2.17219
   A18        2.07395   0.00134  -0.00061   0.00700   0.00640   2.08035
   A19        2.24016  -0.00192  -0.00327   0.00625   0.00297   2.24313
   A20        1.96554   0.00281   0.00389  -0.00165   0.00225   1.96779
   A21        2.07748  -0.00089  -0.00062  -0.00460  -0.00522   2.07226
   A22        1.88550   0.00079   0.00589  -0.01910  -0.01324   1.87226
   A23        2.24243  -0.00170  -0.00404   0.01094   0.00689   2.24932
   A24        2.03599   0.00077   0.00174  -0.00461  -0.00286   2.03313
   A25        2.00477   0.00093   0.00230  -0.00633  -0.00403   2.00074
   A26        2.08216   0.00084   0.00050   0.00032   0.00084   2.08299
   A27        2.06167   0.00090   0.00051   0.00439   0.00490   2.06657
   A28        2.13936  -0.00174  -0.00101  -0.00472  -0.00574   2.13362
   A29        3.13089   0.00498   0.00362   0.25362   0.25724   3.38813
   A30        3.14812   0.00059   0.00080   0.00784   0.00864   3.15676
   A31        3.14151   0.00001   0.00000   0.00035   0.00036   3.14187
   A32        3.14163   0.00000   0.00000   0.00000   0.00000   3.14162
    D1        3.14158   0.00000   0.00001  -0.00001  -0.00001   3.14157
    D2       -0.00002   0.00000   0.00000  -0.00001   0.00000  -0.00002
    D3       -0.00002   0.00000   0.00000  -0.00001   0.00000  -0.00003
    D4        3.14157   0.00000   0.00000   0.00000   0.00000   3.14157
    D5        3.14159   0.00000  -0.00001   0.00002   0.00002  -3.14158
    D6        0.00005   0.00000  -0.00001   0.00007   0.00005   0.00011
    D7        0.00000   0.00000   0.00000   0.00002   0.00002   0.00002
    D8       -3.14153   0.00000  -0.00001   0.00006   0.00005  -3.14148
    D9        0.00002   0.00000   0.00000  -0.00001  -0.00001   0.00001
   D10       -3.14159   0.00000   0.00000  -0.00001   0.00000  -3.14159
   D11       -3.14157   0.00000   0.00000  -0.00001  -0.00001  -3.14158
   D12        0.00001   0.00000   0.00001  -0.00001  -0.00001   0.00000
   D13        0.00001   0.00000  -0.00001   0.00001   0.00000   0.00002
   D14        3.14157   0.00000   0.00000   0.00001   0.00002   3.14158
   D15       -3.14157   0.00000  -0.00001   0.00001   0.00000  -3.14157
   D16       -0.00001   0.00000   0.00000   0.00001   0.00001   0.00000
   D17       -0.00004   0.00000   0.00001   0.00000   0.00001  -0.00002
   D18        3.14158   0.00000   0.00000   0.00001   0.00001  -3.14159
   D19       -3.14159   0.00000   0.00000   0.00000   0.00000  -3.14159
   D20        0.00003   0.00000  -0.00001   0.00001   0.00000   0.00003
[...]
 ! D19   D(17,6,7,8)           179.9995         -DE/DX =    0.0                 !
 ! D20   D(17,6,7,12)            0.0003         -DE/DX =    0.0                 !
 ! D21   D(6,7,8,3)             -0.0015         -DE/DX =    0.0                 !
 ! D22   D(6,7,8,9)            179.9874         -DE/DX =    0.0                 !
 ! D23   D(12,7,8,3)           179.9978         -DE/DX =    0.0                 !
 ! D24   D(12,7,8,9)            -0.0133         -DE/DX =    0.0                 !
 ! D25   D(6,7,12,11)          179.9923         -DE/DX =    0.0                 !
 ! D26   D(6,7,12,19)           -0.0029         -DE/DX =    0.0                 !
 ! D27   D(8,7,12,11)           -0.007          -DE/DX =    0.0                 !
 ! D28   D(8,7,12,19)          179.9979         -DE/DX =    0.0                 !
 ! D29   D(3,8,9,10)          -179.9954         -DE/DX =    0.0                 !
 ! D30   D(3,8,9,18)             0.0102         -DE/DX =    0.0                 !
 ! D31   D(7,8,9,10)             0.0166         -DE/DX =    0.0                 !
 ! D32   D(7,8,9,18)          -179.9778         -DE/DX =    0.0                 !
 ! D33   D(8,9,10,11)            0.0013         -DE/DX =    0.0                 !
 ! D34   D(18,9,10,11)         179.9955         -DE/DX =    0.0                 !
 ! D35   D(9,10,11,12)          -0.0248         -DE/DX =    0.0                 !
 ! D36   D(9,10,11,14)         179.9825         -DE/DX =    0.0                 !
 ! D37   D(10,11,12,7)           0.0287         -DE/DX =    0.0                 !
 ! D38   D(10,11,12,19)       -179.9763         -DE/DX =    0.0                 !
 ! D39   D(14,11,12,7)        -179.9784         -DE/DX =    0.0                 !
 ! D40   D(14,11,12,19)          0.0166         -DE/DX =    0.0                 !
 --------------------------------------------------------------------------------
 GradGradGradGradGradGradGradGradGradGradGradGradGradGradGradGradGradGrad

                          Input orientation:                          
 ---------------------------------------------------------------------
 Center     Atomic      Atomic             Coordinates (Angstroms)
 Number     Number       Type             X           Y           Z
 ---------------------------------------------------------------------
      1          7           0        0.983939   -0.055174   -0.063226
      2          6           0        2.183101   -0.102556   -0.063373
      3          6           0        3.646891   -0.095908   -0.063378
      4          6           0        4.304195    1.143740   -0.063244
      5          6           0        5.726904    1.211402   -0.063206
      6          6           0        6.474927    0.037531   -0.063352
      7          6           0        5.846757   -1.250706   -0.063541
      8          6           0        4.391665   -1.355846   -0.063577
      9          6           0        3.785328   -2.652116   -0.064042
     10          6           0        4.430311   -3.929979   -0.064174
     11          6           0        5.898575   -3.701731   -0.063704
     12          6           0        6.586799   -2.477231   -0.063686
     13          7           0        7.439540   -5.899084   -0.063115
     14          6           0        6.758289   -4.911917   -0.063353
     15          1           0        3.714798    2.070662   -0.063177
     16          1           0        6.220926    2.190664   -0.063077
     17          1           0        7.573509    0.085315   -0.063322
     18          1           0        2.680755   -2.623050   -0.064423
     19          1           0        7.686213   -2.426945   -0.063699
 ---------------------------------------------------------------------
                    Distance matrix (angstroms):
                    1          2          3          4          5
     1  N    0.000000
     2  C    1.200097   0.000000
     3  C    2.663264   1.463806   0.000000
     4  C    3.530084   2.460141   1.403131   0.000000
     5  C    4.909168   3.779554   2.456728   1.424317   0.000000
     6  C    5.491770   4.294112   2.831182   2.436345   1.391946
     7  C    5.007624   3.839352   2.484546   2.848310   2.465024
     8  C    3.647511   2.539388   1.463602   2.501116   2.893722
     9  C    3.819933   3.011210   2.559954   3.831155   4.323944
    10  C    5.185710   4.438369   3.913291   5.075286   5.302354
    11  C    6.119724   5.172891   4.251122   5.101043   4.916132
    12  C    6.103965   5.003162   3.783352   4.280387   3.787537
    13  N    8.707816   7.824953   6.932606   7.709200   7.313832
    14  C    7.545268   6.637944   5.733650   6.534031   6.209573
    15  H    3.460747   2.658754   2.167634   1.098441   2.187898
    16  H    5.698230   4.643586   3.442974   2.184012   1.096819
    17  H    6.591068   5.393681   3.930798   3.436376   2.162874
    18  H    3.077851   2.569153   2.705525   4.101739   4.897147
    19  H    7.109555   5.973862   4.663674   4.918113   4.132368
                    6          7          8          9         10
     6  C    0.000000
     7  C    1.433232   0.000000
     8  C    2.506288   1.458886   0.000000
     9  C    3.803701   2.492677   1.431069   0.000000
    10  C    4.463361   3.030647   2.574423   1.431411   0.000000
    11  C    3.783420   2.451573   2.788181   2.359556   1.485899
    12  C    2.517250   1.432489   2.464978   2.806924   2.600176
    13  N    6.014472   4.913692   5.470882   4.888360   3.596225
    14  C    4.957553   3.772977   4.271599   3.734327   2.526596
    15  H    3.428110   3.946738   3.492722   4.723305   6.043149
    16  H    2.168063   3.461652   3.990480   5.420762   6.377192
    17  H    1.099621   2.183261   3.493005   4.673740   5.099244
    18  H    4.634052   3.450638   2.129089   1.104956   2.183807
    19  H    2.746062   2.183377   3.464290   3.907378   3.586086
                   11         12         13         14         15
    11  C    0.000000
    12  C    1.404654   0.000000
    13  N    2.683828   3.526506   0.000000
    14  C    1.484473   2.440718   1.199417   0.000000
    15  H    6.171662   5.378822   8.797190   7.617037   0.000000
    16  H    5.901206   4.682212   8.181017   7.122880   2.509000
    17  H    4.140909   2.745950   5.985899   5.063291   4.339500
    18  H    3.393806   3.908765   5.777407   4.676024   4.806265
    19  H    2.195617   1.100564   3.480891   2.652571   6.000051
                   16         17         18         19
    16  H    0.000000
    17  H    2.502394   0.000000
    18  H    5.975338   5.592342   0.000000
    19  H    4.844520   2.514787   5.009299   0.000000
 Stoichiometry    C12H5N2(1-)
 Framework group  C1[X(C12H5N2)]
 Deg. of freedom    51
 Full point group                 C1      NOp   1
 Largest Abelian subgroup         C1      NOp   1
 Largest concise Abelian subgroup C1      NOp   1
                         Standard orientation:                         
 ---------------------------------------------------------------------
 Center     Atomic      Atomic             Coordinates (Angstroms)
 Number     Number       Type             X           Y           Z
 ---------------------------------------------------------------------
      1          7           0       -3.521782   -2.366594    0.000268
      2          6           0       -2.813590   -1.397730    0.000121
      3          6           0       -2.002639   -0.179089    0.000115
      4          6           0       -2.664906    1.057914    0.000249
      5          6           0       -1.927511    2.276490    0.000287
      6          6           0       -0.535978    2.242583    0.000141
      7          6           0        0.182868    1.002658   -0.000048
      8          6           0       -0.541485   -0.263699   -0.000084
      9          6           0        0.196207   -1.489983   -0.000549
     10          6           0        1.616578   -1.667416   -0.000681
     11          6           0        2.246098   -0.321460   -0.000211
     12          6           0        1.613651    0.932758   -0.000193
     13          7           0        4.929396   -0.268107    0.000378
     14          6           0        3.730071   -0.282919    0.000140
     15          1           0       -3.762995    1.085736    0.000316
     16          1           0       -2.464734    3.232734    0.000416
     17          1           0        0.037126    3.181049    0.000172
     18          1           0       -0.444024   -2.390556   -0.000929
     19          1           0        2.185142    1.873310   -0.000206
 ---------------------------------------------------------------------
 Rotational constants (GHZ):      1.4209798      0.4552305      0.3447766

 **********************************************************************

            Population analysis using the SCF density.

 **********************************************************************

 Orbital symmetries:
       Occupied  (A) (A) (A) (A) (A) (A) (A) (A) (A) (A) (A) (A)
                 (A) (A) (A) (A) (A) (A) (A) (A) (A) (A) (A) (A)
                 (A) (A) (A) (A) (A) (A) (A) (A) (A) (A) (A) (A)
                 (A) (A) (A) (A) (A) (A) (A) (A) (A) (A)
       Virtual   (A) (A) (A) (A) (A) (A) (A) (A) (A) (A) (A) (A)
                 (A) (A) (A) (A) (A) (A) (A) (A) (A) (A) (A) (A)
                 (A) (A) (A) (A) (A)
 The electronic state is 1-A.
 Alpha  occ. eigenvalues --  -13.99065 -13.94742  -9.90609  -9.89556  -9.89070
 Alpha  occ. eigenvalues --   -9.88378  -9.87841  -9.86890  -9.86698  -9.85305
 Alpha  occ. eigenvalues --   -9.85060  -9.84638  -9.79110  -9.67260  -0.72484
 Alpha  occ. eigenvalues --   -0.68942  -0.67877  -0.61756  -0.59188  -0.54501
 Alpha  occ. eigenvalues --   -0.50969  -0.45818  -0.41822  -0.40775  -0.34711
 Alpha  occ. eigenvalues --   -0.33086  -0.30367  -0.27947  -0.25018  -0.23344
 Alpha  occ. eigenvalues --   -0.22034  -0.20866  -0.19430  -0.17361  -0.16294
 Alpha  occ. eigenvalues --   -0.15248  -0.14192  -0.13418  -0.13229  -0.10949
 Alpha  occ. eigenvalues --   -0.10208  -0.08349  -0.07659  -0.01989   0.01312
 Alpha  occ. eigenvalues --    0.11071
 Alpha virt. eigenvalues --    0.15919   0.22361   0.24023   0.25951   0.30174
 Alpha virt. eigenvalues --    0.31217   0.32549   0.38273   0.43322   0.45850
 Alpha virt. eigenvalues --    0.46112   0.49521   0.51825   0.55397   0.56687
 Alpha virt. eigenvalues --    0.57913   0.60621   0.62545   0.64745   0.69554
 Alpha virt. eigenvalues --    0.71685   0.74554   0.78076   0.81879   0.84733
 Alpha virt. eigenvalues --    0.91669   0.92784   1.06545   1.09117
          Condensed to atoms (all electrons):
               1          2          3          4          5          6
     1  N    6.586698   0.660239  -0.010661  -0.000207  -0.000001   0.000000
     2  C    0.660239   4.930299   0.417641  -0.031882   0.000913   0.000012
     3  C   -0.010661   0.417641   4.785460   0.510326  -0.028748  -0.009871
     4  C   -0.000207  -0.031882   0.510326   4.827346   0.479888  -0.029348
     5  C   -0.000001   0.000913  -0.028748   0.479888   4.833977   0.519715
     6  C    0.000000   0.000012  -0.009871  -0.029348   0.519715   4.822790
     7  C   -0.000002   0.000771  -0.027089  -0.009206  -0.028196   0.473596
     8  C    0.000050  -0.026804   0.443679  -0.026071  -0.007901  -0.025048
     9  C   -0.000101  -0.003620  -0.025130   0.000587   0.000033   0.000750
    10  C    0.000000   0.000008   0.000598  -0.000005   0.000000   0.000004
    11  C    0.000000   0.000001   0.000045   0.000000  -0.000007   0.000737
    12  C    0.000000  -0.000006   0.000851   0.000029   0.000761  -0.027970
    13  N    0.000000   0.000000   0.000000   0.000000   0.000000   0.000000
    14  C    0.000000   0.000000   0.000000   0.000000   0.000000  -0.000007
    15  H    0.000065  -0.003869  -0.025327   0.386788  -0.024760   0.001358
    16  H    0.000000  -0.000017   0.001296  -0.025398   0.388561  -0.025335
    17  H    0.000000   0.000001   0.000026   0.001440  -0.026039   0.385110
    18  H   -0.000345   0.002514  -0.004199   0.000017  -0.000001  -0.000020
    19  H    0.000000   0.000000  -0.000015  -0.000001   0.000013  -0.003453
               7          8          9         10         11         12
     1  N   -0.000002   0.000050  -0.000101   0.000000   0.000000   0.000000
     2  C    0.000771  -0.026804  -0.003620   0.000008   0.000001  -0.000006
     3  C   -0.027089   0.443679  -0.025130   0.000598   0.000045   0.000851
     4  C   -0.009206  -0.026071   0.000587  -0.000005   0.000000   0.000029
     5  C   -0.028196  -0.007901   0.000033   0.000000  -0.000007   0.000761
     6  C    0.473596  -0.025048   0.000750   0.000004   0.000737  -0.027970
     7  C    4.808927   0.449895  -0.029505  -0.005755  -0.030101   0.472877
     8  C    0.449895   4.828931   0.467860  -0.017064  -0.013190  -0.029517
     9  C   -0.029505   0.467860   4.945730   0.447595  -0.029065  -0.012361
    10  C   -0.005755  -0.017064   0.447595   5.473232   0.384557  -0.017027
    11  C   -0.030101  -0.013190  -0.029065   0.384557   4.875880   0.500193
    12  C    0.472877  -0.029517  -0.012361  -0.017027   0.500193   4.870861
    13  N   -0.000001   0.000000  -0.000002   0.000022  -0.010485  -0.000034
    14  C    0.000996   0.000008   0.001395  -0.031772   0.396153  -0.039788
    15  H    0.000030   0.001181  -0.000014   0.000000   0.000000   0.000001
    16  H    0.001336   0.000019   0.000000   0.000000   0.000000  -0.000016
    17  H   -0.025100   0.001219  -0.000016   0.000000   0.000016  -0.003396
    18  H    0.001355  -0.036225   0.380337  -0.032068   0.002257   0.000005
    19  H   -0.026516   0.001226   0.000075   0.000904  -0.022975   0.381046
              13         14         15         16         17         18
     1  N    0.000000   0.000000   0.000065   0.000000   0.000000  -0.000345
     2  C    0.000000   0.000000  -0.003869  -0.000017   0.000001   0.002514
     3  C    0.000000   0.000000  -0.025327   0.001296   0.000026  -0.004199
     4  C    0.000000   0.000000   0.386788  -0.025398   0.001440   0.000017
     5  C    0.000000   0.000000  -0.024760   0.388561  -0.026039  -0.000001
     6  C    0.000000  -0.000007   0.001358  -0.025335   0.385110  -0.000020
     7  C   -0.000001   0.000996   0.000030   0.001336  -0.025100   0.001355
     8  C    0.000000   0.000008   0.001181   0.000019   0.001219  -0.036225
     9  C   -0.000002   0.001395  -0.000014   0.000000  -0.000016   0.380337
    10  C    0.000022  -0.031772   0.000000   0.000000   0.000000  -0.032068
    11  C   -0.010485   0.396153   0.000000   0.000000   0.000016   0.002257
    12  C   -0.000034  -0.039788   0.000001  -0.000016  -0.003396   0.000005
    13  N    6.618783   0.660896   0.000000   0.000000   0.000000   0.000000
    14  C    0.660896   4.972886   0.000000   0.000000  -0.000001  -0.000013
    15  H    0.000000   0.000000   0.605277  -0.003386  -0.000034  -0.000001
    16  H    0.000000   0.000000  -0.003386   0.613155  -0.003715   0.000000
    17  H    0.000000  -0.000001  -0.000034  -0.003715   0.610772   0.000000
    18  H    0.000000  -0.000013  -0.000001   0.000000   0.000000   0.658459
    19  H    0.000048  -0.003657   0.000000  -0.000001   0.001048   0.000003
              19
     1  N    0.000000
     2  C    0.000000
     3  C   -0.000015
     4  C   -0.000001
     5  C    0.000013
     6  C   -0.003453
     7  C   -0.026516
     8  C    0.001226
     9  C    0.000075
    10  C    0.000904
    11  C   -0.022975
    12  C    0.381046
    13  N    0.000048
    14  C   -0.003657
    15  H    0.000000
    16  H   -0.000001
    17  H    0.001048
    18  H    0.000003
    19  H    0.623509
 Mulliken charges:
               1
     1  N   -0.235738
     2  C    0.053800
     3  C   -0.028882
     4  C   -0.084304
     5  C   -0.108207
     6  C   -0.083019
     7  C   -0.028313
     8  C   -0.012250
     9  C   -0.144550
    10  C   -0.203230
    11  C   -0.054012
    12  C   -0.096508
    13  N   -0.269226
    14  C    0.042906
    15  H    0.062691
    16  H    0.053501
    17  H    0.058669
    18  H    0.027925
    19  H    0.048746
 Sum of Mulliken charges =  -1.00000
 Mulliken charges with hydrogens summed into heavy atoms:
               1
     1  N   -0.235738
     2  C    0.053800
     3  C   -0.028882
     4  C   -0.021613
     5  C   -0.054706
     6  C   -0.024349
     7  C   -0.028313
     8  C   -0.012250
     9  C   -0.116625
    10  C   -0.203230
    11  C   -0.054012
    12  C   -0.047762
    13  N   -0.269226
    14  C    0.042906
 Electronic spatial extent (au):  <R**2>=           2934.7548
 Charge=             -1.0000 electrons
 Dipole moment (field-independent basis, Debye):
    X=             -5.1701    Y=              6.4304    Z=              0.0006  Tot=              8.2510
 Quadrupole moment (field-independent basis, Debye-Ang):
   XX=           -128.2380   YY=            -90.1651   ZZ=            -74.1626
   XY=             -1.2782   XZ=              0.0009   YZ=             -0.0028
 Traceless Quadrupole moment (field-independent basis, Debye-Ang):
   XX=            -30.7161   YY=              7.3568   ZZ=             23.3592
   XY=             -1.2782   XZ=              0.0009   YZ=             -0.0028
 Octapole moment (field-independent basis, Debye-Ang**2):
  XXX=           -148.5465  YYY=             44.5412  ZZZ=              0.0019  XYY=             17.7644
  XXY=             65.9623  XXZ=             -0.0162  XZZ=              1.9074  YZZ=             -3.1599
  YYZ=              0.0072  XYZ=             -0.0107
 Hexadecapole moment (field-independent basis, Debye-Ang**3):
 XXXX=          -3919.0355 YYYY=          -1057.0784 ZZZZ=            -58.3774 XXXY=            -83.8289
 XXXZ=             -0.0281 YYYX=            -31.8123 YYYZ=             -0.0491 ZZZX=              0.0419
 ZZZY=             -0.0429 XXYY=           -755.6085 XXZZ=           -457.1460 YYZZ=           -176.7857
 XXYZ=             -0.0079 YYXZ=              0.0395 ZZXY=              7.5819
 N-N= 6.918806487171D+02 E-N=-2.705883219855D+03  KE= 5.547371718886D+02
 1\1\GINC-N008\FOpt\RB3LYP\STO-3G\C12H5N2(1-)\R2532\15-Jun-2021\0\\#N B
 3LYP/STO-3G OPT\\1Naph\\-1,1\N,0.9839391634,-0.0551744523,-0.063225565
 4\C,2.1831008217,-0.1025563314,-0.0633725744\C,3.6468913321,-0.0959083
 426,-0.0633784778\C,4.3041946159,1.1437399497,-0.0632441308\C,5.726903
 5747,1.2114024682,-0.063206123\C,6.4749269286,0.0375311099,-0.06335227
 7\C,5.8467570017,-1.250706344,-0.0635412895\C,4.3916645762,-1.35584606
 99,-0.0635771976\C,3.7853281386,-2.6521159706,-0.0640416848\C,4.430310
 9134,-3.9299791483,-0.0641740553\C,5.8985746332,-3.701731203,-0.063704
 2269\C,6.5867985638,-2.4772312648,-0.0636864302\N,7.4395396832,-5.8990
 840069,-0.0631152474\C,6.7582893454,-4.9119172697,-0.0633534688\H,3.71
 47977274,2.0706621124,-0.0631768815\H,6.2209258982,2.1906642418,-0.063
 0769662\H,7.5735093702,0.0853151668,-0.0633215506\H,2.680754564,-2.623
 0500595,-0.0644225345\H,7.6862131482,-2.4269445859,-0.0636993184\\Vers
 ion=ES64L-G09RevD.01\State=1-A\HF=-562.5153879\RMSD=2.353e-09\RMSF=1.2
 99e-04\Dipole=0.9652269,3.0993839,0.0002434\Quadrupole=-4.2167988,-13.
 1502312,17.36703,13.4633817,-0.0013256,-0.0017015\PG=C01 [X(C12H5N2)]\
 \@


            ARSENIC

 FOR SMELTER FUMES HAVE I BEEN NAMED,
    I AM AN EVIL POISONOUS SMOKE...
 BUT WHEN FROM POISON I AM FREED,
    THROUGH ART AND SLEIGHT OF HAND,
 THEN CAN I CURE BOTH MAN AND BEAST,
    FROM DIRE DISEASE OFTTIMES DIRECT THEM;
 BUT PREPARE ME CORRECTLY, AND TAKE GREAT CARE
    THAT YOU FAITHFULLY KEEP WATCHFUL GUARD OVER ME;
 FOR ELSE I AM POISON, AND POISON REMAIN,
    THAT PIERCES THE HEART OF MANY A ONE.

 ATTRIBUTED TO THE PROBABLY MYTHICAL 15TH
 CENTURY MONK, BASILIUS VALENTINUS
 Job cpu time:       0 days  0 hours  4 minutes 21.3 seconds.
 File lengths (MBytes):  RWF=      5 Int=      0 D2E=      0 Chk=      2 Scr=      1
 Normal termination of Gaussian 09 at Tue Jun 15 11:17:59 2021.
