 Entering Gaussian System, Link 0=/usr/local/apps//g09/g09
 Input=14.com
 Output=14.out
 Initial command:
 /usr/local/apps//g09/l1.exe "/tmp/bnp.472628.sequoia/Gau-6293.inp" -scrdir="/tmp/bnp.472628.sequoia/"
 Entering Link 1 = /usr/local/apps//g09/l1.exe PID=      6294.
  
 Copyright (c) 1988,1990,1992,1993,1995,1998,2003,2009,2013,
            Gaussian, Inc.  All Rights Reserved.
  
 This is part of the Gaussian(R) 09 program.  It is based on
 the Gaussian(R) 03 system (copyright 2003, Gaussian, Inc.),
 the Gaussian(R) 98 system (copyright 1998, Gaussian, Inc.),
 the Gaussian(R) 94 system (copyright 1995, Gaussian, Inc.),
 the Gaussian 92(TM) system (copyright 1992, Gaussian, Inc.),
 the Gaussian 90(TM) system (copyright 1990, Gaussian, Inc.),
 the Gaussian 88(TM) system (copyright 1988, Gaussian, Inc.),
 the Gaussian 86(TM) system (copyright 1986, Carnegie Mellon
 University), and the Gaussian 82(TM) system (copyright 1983,
 Carnegie Mellon University). Gaussian is a federally registered
 trademark of Gaussian, Inc.
  
 This software contains proprietary and confidential information,
 including trade secrets, belonging to Gaussian, Inc.
  
 This software is provided under written license and may be
 used, copied, transmitted, or stored only in accord with that
 written license.
  
 The following legend is applicable only to US Government
 contracts under FAR:
  
                    RESTRICTED RIGHTS LEGEND
  
 Use, reproduction and disclosure by the US Government is
 subject to restrictions as set forth in subparagraphs (a)
 and (c) of the Commercial Computer Software - Restricted
 Rights clause in FAR 52.227-19.
  
 Gaussian, Inc.
 340 Quinnipiac St., Bldg. 40, Wallingford CT 06492
  
  
 ---------------------------------------------------------------
 Warning -- This program may not be used in any manner that
 competes with the business of Gaussian, Inc. or will provide
 assistance to any competitor of Gaussian, Inc.  The licensee
 of this program is prohibited from giving any competitor of
 Gaussian, Inc. access to this program.  By using this program,
 the user acknowledges that Gaussian, Inc. is engaged in the
 business of creating and licensing software in the field of
 computational chemistry and represents and warrants to the
 licensee that it is not a competitor of Gaussian, Inc. and that
 it will not use this program in any manner prohibited above.
 ---------------------------------------------------------------
  

 Cite this work as:
 Gaussian 09, Revision D.01,
 M. J. Frisch, G. W. Trucks, H. B. Schlegel, G. E. Scuseria, 
 M. A. Robb, J. R. Cheeseman, G. Scalmani, V. Barone, B. Mennucci, 
 G. A. Petersson, H. Nakatsuji, M. Caricato, X. Li, H. P. Hratchian, 
 A. F. Izmaylov, J. Bloino, G. Zheng, J. L. Sonnenberg, M. Hada, 
 M. Ehara, K. Toyota, R. Fukuda, J. Hasegawa, M. Ishida, T. Nakajima, 
 Y. Honda, O. Kitao, H. Nakai, T. Vreven, J. A. Montgomery, Jr., 
 J. E. Peralta, F. Ogliaro, M. Bearpark, J. J. Heyd, E. Brothers, 
 K. N. Kudin, V. N. Staroverov, T. Keith, R. Kobayashi, J. Normand, 
 K. Raghavachari, A. Rendell, J. C. Burant, S. S. Iyengar, J. Tomasi, 
 M. Cossi, N. Rega, J. M. Millam, M. Klene, J. E. Knox, J. B. Cross, 
 V. Bakken, C. Adamo, J. Jaramillo, R. Gomperts, R. E. Stratmann, 
 O. Yazyev, A. J. Austin, R. Cammi, C. Pomelli, J. W. Ochterski, 
 R. L. Martin, K. Morokuma, V. G. Zakrzewski, G. A. Voth, 
 P. Salvador, J. J. Dannenberg, S. Dapprich, A. D. Daniels, 
 O. Farkas, J. B. Foresman, J. V. Ortiz, J. Cioslowski, 
 and D. J. Fox, Gaussian, Inc., Wallingford CT, 2013.
 
 ******************************************
 Gaussian 09:  ES64L-G09RevD.01 24-Apr-2013
                15-Jun-2021 
 ******************************************
 -------------------
 #N B3LYP/STO-3G OPT
 -------------------
 1/14=-1,18=20,19=15,26=3,38=1/1,3;
 2/9=110,12=2,17=6,18=5,40=1/2;
 3/6=3,11=2,16=1,25=1,30=1,71=1,74=-5/1,2,3;
 4//1;
 5/5=2,38=5/2;
 6/7=2,8=2,9=2,10=2,28=1/1;
 7//1,2,3,16;
 1/14=-1,18=20,19=15,26=3/3(2);
 2/9=110/2;
 99//99;
 2/9=110/2;
 3/6=3,11=2,16=1,25=1,30=1,71=1,74=-5/1,2,3;
 4/5=5,16=3,69=1/1;
 5/5=2,38=5/2;
 7//1,2,3,16;
 1/14=-1,18=20,19=15,26=3/3(-5);
 2/9=110/2;
 6/7=2,8=2,9=2,10=2,19=2,28=1/1;
 99/9=1/99;
 -----
 2Naph
 -----
 Symbolic Z-matrix:
 Charge = -1 Multiplicity = 1
 N                     1.16491  -0.22693  -0.02376 
 C                     2.32447  -0.18849  -0.02416 
 C                     4.51605  -1.29875  -0.02591 
 C                     3.75699  -0.12564  -0.02511 
 C                     4.39963   1.11308  -0.02538 
 C                     5.80097   1.1842   -0.02643 
 C                     6.58625   0.00439  -0.02707 
 C                     5.91651  -1.24312  -0.0272 
 C                     6.65406  -2.43117  -0.02802 
 C                     8.04574  -2.41641  -0.02861 
 C                     8.72207  -1.20291  -0.02892 
 C                     8.00251  -0.00612  -0.02856 
 N                     6.89912   3.53571  -0.02767 
 C                     6.40916   2.48371  -0.02666 
 H                     4.01329  -2.26652  -0.02551 
 H                     3.80957   2.03021  -0.02475 
 H                     8.59579  -3.353    -0.02875 
 H                     9.80952  -1.18216  -0.02943 
 H                     8.56957   0.92458  -0.02849 
 

 GradGradGradGradGradGradGradGradGradGradGradGradGradGradGradGradGradGrad
 Berny optimization.
 Initialization pass.
                           ----------------------------
                           !    Initial Parameters    !
                           ! (Angstroms and Degrees)  !
 --------------------------                            --------------------------
 ! Name  Definition              Value          Derivative Info.                !
 --------------------------------------------------------------------------------
 ! R1    R(1,2)                  1.1602         estimate D2E/DX2                !
 ! R2    R(2,4)                  1.4339         estimate D2E/DX2                !
 ! R3    R(3,4)                  1.3973         estimate D2E/DX2                !
 ! R4    R(3,8)                  1.4016         estimate D2E/DX2                !
 ! R5    R(3,15)                 1.0906         estimate D2E/DX2                !
 ! R6    R(4,5)                  1.3955         estimate D2E/DX2                !
 ! R7    R(5,6)                  1.4031         estimate D2E/DX2                !
 ! R8    R(5,16)                 1.0905         estimate D2E/DX2                !
 ! R9    R(6,7)                  1.4173         estimate D2E/DX2                !
 ! R10   R(6,14)                 1.4348         estimate D2E/DX2                !
 ! R11   R(7,8)                  1.4159         estimate D2E/DX2                !
 ! R12   R(7,12)                 1.4163         estimate D2E/DX2                !
 ! R13   R(8,9)                  1.3984         estimate D2E/DX2                !
 ! R14   R(9,10)                 1.3918         estimate D2E/DX2                !
 ! R15   R(10,11)                1.3892         estimate D2E/DX2                !
 ! R16   R(10,17)                1.0862         estimate D2E/DX2                !
 ! R17   R(11,12)                1.3965         estimate D2E/DX2                !
 ! R18   R(11,18)                1.0876         estimate D2E/DX2                !
 ! R19   R(12,19)                1.0898         estimate D2E/DX2                !
 ! R20   R(13,14)                1.1605         estimate D2E/DX2                !
 ! A1    A(4,3,8)              120.6301         estimate D2E/DX2                !
 ! A2    A(4,3,15)             119.6431         estimate D2E/DX2                !
 ! A3    A(8,3,15)             119.7268         estimate D2E/DX2                !
 ! A4    A(2,4,3)              120.3927         estimate D2E/DX2                !
 ! A5    A(2,4,5)              119.9322         estimate D2E/DX2                !
 ! A6    A(3,4,5)              119.6751         estimate D2E/DX2                !
 ! A7    A(4,5,6)              120.3253         estimate D2E/DX2                !
 ! A8    A(4,5,16)             119.8237         estimate D2E/DX2                !
 ! A9    A(6,5,16)             119.8509         estimate D2E/DX2                !
 ! A10   A(5,6,7)              120.7423         estimate D2E/DX2                !
 ! A11   A(5,6,14)             117.9856         estimate D2E/DX2                !
 ! A12   A(7,6,14)             121.272          estimate D2E/DX2                !
 ! A13   A(6,7,8)              118.1227         estimate D2E/DX2                !
 ! A14   A(6,7,12)             124.0729         estimate D2E/DX2                !
 ! A15   A(8,7,12)             117.8044         estimate D2E/DX2                !
 ! A16   A(3,8,7)              120.5044         estimate D2E/DX2                !
 ! A17   A(3,8,9)              119.5576         estimate D2E/DX2                !
 ! A18   A(7,8,9)              119.9381         estimate D2E/DX2                !
 ! A19   A(8,9,10)             121.2247         estimate D2E/DX2                !
 ! A20   A(9,10,11)            119.7402         estimate D2E/DX2                !
 ! A21   A(9,10,17)            119.8176         estimate D2E/DX2                !
 ! A22   A(11,10,17)           120.4421         estimate D2E/DX2                !
 ! A23   A(10,11,12)           119.8514         estimate D2E/DX2                !
 ! A24   A(10,11,18)           120.2257         estimate D2E/DX2                !
 ! A25   A(12,11,18)           119.9229         estimate D2E/DX2                !
 ! A26   A(7,12,11)            121.4412         estimate D2E/DX2                !
 ! A27   A(7,12,19)            120.9281         estimate D2E/DX2                !
 ! A28   A(11,12,19)           117.6307         estimate D2E/DX2                !
 ! A29   L(1,2,4,16,-1)        179.3865         estimate D2E/DX2                !
 ! A30   L(6,14,13,18,-1)      180.1069         estimate D2E/DX2                !
 ! A31   L(1,2,4,16,-2)        180.0226         estimate D2E/DX2                !
 ! A32   L(6,14,13,18,-2)      179.956          estimate D2E/DX2                !
 ! D1    D(8,3,4,2)            179.9829         estimate D2E/DX2                !
 ! D2    D(8,3,4,5)             -0.0104         estimate D2E/DX2                !
 ! D3    D(15,3,4,2)            -0.0181         estimate D2E/DX2                !
 ! D4    D(15,3,4,5)           179.9886         estimate D2E/DX2                !
 ! D5    D(4,3,8,7)              0.0303         estimate D2E/DX2                !
 ! D6    D(4,3,8,9)           -179.9982         estimate D2E/DX2                !
 ! D7    D(15,3,8,7)          -179.9687         estimate D2E/DX2                !
 ! D8    D(15,3,8,9)             0.0028         estimate D2E/DX2                !
 ! D9    D(2,4,5,6)           -179.9942         estimate D2E/DX2                !
 ! D10   D(2,4,5,16)             0.0071         estimate D2E/DX2                !
 ! D11   D(3,4,5,6)             -0.0009         estimate D2E/DX2                !
 ! D12   D(3,4,5,16)          -179.9996         estimate D2E/DX2                !
 ! D13   D(4,5,6,7)             -0.0076         estimate D2E/DX2                !
 ! D14   D(4,5,6,14)          -179.9999         estimate D2E/DX2                !
 ! D15   D(16,5,6,7)           179.991          estimate D2E/DX2                !
 ! D16   D(16,5,6,14)           -0.0012         estimate D2E/DX2                !
 ! D17   D(5,6,7,8)              0.0266         estimate D2E/DX2                !
 ! D18   D(5,6,7,12)           179.9792         estimate D2E/DX2                !
 ! D19   D(14,6,7,8)          -179.9814         estimate D2E/DX2                !
 ! D20   D(14,6,7,12)           -0.0288         estimate D2E/DX2                !
 ! D21   D(6,7,8,3)             -0.0378         estimate D2E/DX2                !
 ! D22   D(6,7,8,9)            179.9908         estimate D2E/DX2                !
 ! D23   D(12,7,8,3)          -179.9934         estimate D2E/DX2                !
 ! D24   D(12,7,8,9)             0.0352         estimate D2E/DX2                !
 ! D25   D(6,7,12,11)          179.99           estimate D2E/DX2                !
 ! D26   D(6,7,12,19)            0.0499         estimate D2E/DX2                !
 ! D27   D(8,7,12,11)           -0.0573         estimate D2E/DX2                !
 ! D28   D(8,7,12,19)         -179.9973         estimate D2E/DX2                !
 ! D29   D(3,8,9,10)          -179.9665         estimate D2E/DX2                !
 ! D30   D(7,8,9,10)             0.0052         estimate D2E/DX2                !
 ! D31   D(8,9,10,11)           -0.0254         estimate D2E/DX2                !
 ! D32   D(8,9,10,17)          179.97           estimate D2E/DX2                !
 ! D33   D(9,10,11,12)           0.0037         estimate D2E/DX2                !
 ! D34   D(9,10,11,18)        -179.997          estimate D2E/DX2                !
 ! D35   D(17,10,11,12)       -179.9917         estimate D2E/DX2                !
 ! D36   D(17,10,11,18)          0.0076         estimate D2E/DX2                !
 ! D37   D(10,11,12,7)           0.0384         estimate D2E/DX2                !
 ! D38   D(10,11,12,19)        179.9804         estimate D2E/DX2                !
 ! D39   D(18,11,12,7)        -179.9609         estimate D2E/DX2                !
 ! D40   D(18,11,12,19)         -0.0189         estimate D2E/DX2                !
 --------------------------------------------------------------------------------
 Trust Radius=3.00D-01 FncErr=1.00D-07 GrdErr=1.00D-06
 Number of steps in this run=    102 maximum allowed number of steps=    114.
 GradGradGradGradGradGradGradGradGradGradGradGradGradGradGradGradGradGrad

                          Input orientation:                          
 ---------------------------------------------------------------------
 Center     Atomic      Atomic             Coordinates (Angstroms)
 Number     Number       Type             X           Y           Z
 ---------------------------------------------------------------------
      1          7           0        1.164910   -0.226930   -0.023760
      2          6           0        2.324470   -0.188490   -0.024160
      3          6           0        4.516050   -1.298750   -0.025910
      4          6           0        3.756990   -0.125640   -0.025110
      5          6           0        4.399630    1.113080   -0.025380
      6          6           0        5.800970    1.184200   -0.026430
      7          6           0        6.586250    0.004390   -0.027070
      8          6           0        5.916510   -1.243120   -0.027200
      9          6           0        6.654060   -2.431170   -0.028020
     10          6           0        8.045740   -2.416410   -0.028610
     11          6           0        8.722070   -1.202910   -0.028920
     12          6           0        8.002510   -0.006120   -0.028560
     13          7           0        6.899120    3.535710   -0.027670
     14          6           0        6.409160    2.483710   -0.026660
     15          1           0        4.013290   -2.266520   -0.025510
     16          1           0        3.809570    2.030210   -0.024750
     17          1           0        8.595790   -3.353000   -0.028750
     18          1           0        9.809520   -1.182160   -0.029430
     19          1           0        8.569570    0.924580   -0.028490
 ---------------------------------------------------------------------
                    Distance matrix (angstroms):
                    1          2          3          4          5
     1  N    0.000000
     2  C    1.160197   0.000000
     3  C    3.518372   2.456767   0.000000
     4  C    2.594059   1.433898   1.397269   0.000000
     5  C    3.501292   2.449566   2.414638   1.395498   0.000000
     6  C    4.846065   3.737691   2.795722   2.427661   1.403144
     7  C    5.426274   4.266143   2.446202   2.832247   2.451633
     8  C    4.859049   3.743662   1.401565   2.431521   2.802250
     9  C    5.915189   4.875959   2.419394   3.702498   4.200496
    10  C    7.220780   6.139754   3.702416   4.862203   5.074587
    11  C    7.619923   6.477527   4.207113   5.080605   4.903806
    12  C    6.841166   5.680970   3.718374   4.247203   3.772713
    13  N    6.858472   5.898907   5.389901   4.824777   3.480889
    14  C    5.903366   4.881122   4.229760   3.720580   2.432455
    15  H    3.503313   2.677746   1.090572   2.156167   3.401611
    16  H    3.476911   2.669860   3.403100   2.156491   1.090550
    17  H    8.061657   7.024500   4.567738   5.816343   6.128103
    18  H    8.697228   7.550721   5.294755   6.144052   5.876653
    19  H    7.493663   6.343518   4.623227   4.925840   4.174200
                    6          7          8          9         10
     6  C    0.000000
     7  C    1.417257   0.000000
     8  C    2.430068   1.415921   0.000000
     9  C    3.714655   2.436504   1.398372   0.000000
    10  C    4.243040   2.826727   2.431097   1.391758   0.000000
    11  C    3.772416   2.453427   2.805849   2.405263   1.389246
    12  C    2.502727   1.416300   2.425194   2.774741   2.410678
    13  N    2.595291   3.545153   4.878805   5.971910   6.061557
    14  C    1.434790   2.485636   3.759251   4.920978   5.166195
    15  H    3.886292   3.431786   2.160925   2.645899   4.035236
    16  H    2.163657   3.437136   3.892800   5.291034   6.141464
    17  H    5.328903   3.912841   3.410299   2.149439   1.086166
    18  H    4.654905   3.434731   3.893488   3.393664   2.152741
    19  H    2.780747   2.186392   3.426026   3.863966   3.381806
                   11         12         13         14         15
    11  C    0.000000
    12  C    1.396450   0.000000
    13  N    5.077171   3.709721   0.000000
    14  C    4.352094   2.956014   1.160502   0.000000
    15  H    4.827410   4.585117   6.480269   5.320233   0.000000
    16  H    5.880964   4.661266   3.436838   2.638851   4.301557
    17  H    2.153795   3.399057   7.094577   6.232860   4.709539
    18  H    1.087648   2.156005   5.543350   5.000106   5.896790
    19  H    2.132949   1.089844   3.099743   2.664256   5.562627
                   16         17         18         19
    16  H    0.000000
    17  H    7.203254   0.000000
    18  H    6.805787   2.487104   0.000000
    19  H    4.886720   4.277660   2.444551   0.000000
 Stoichiometry    C12H5N2(1-)
 Framework group  C1[X(C12H5N2)]
 Deg. of freedom    51
 Full point group                 C1      NOp   1
 Largest Abelian subgroup         C1      NOp   1
 Largest concise Abelian subgroup C1      NOp   1
                         Standard orientation:                         
 ---------------------------------------------------------------------
 Center     Atomic      Atomic             Coordinates (Angstroms)
 Number     Number       Type             X           Y           Z
 ---------------------------------------------------------------------
      1          7           0       -4.441445   -0.896674   -0.000314
      2          6           0       -3.303343   -0.671330    0.000118
      3          6           0       -0.961133   -1.412787    0.000066
      4          6           0       -1.899814   -0.377780    0.000195
      5          6           0       -1.465827    0.948518    0.000257
      6          6           0       -0.094404    1.245190    0.000210
      7          6           0        0.871234    0.207809    0.000261
      8          6           0        0.411924   -1.131544   -0.000220
      9          6           0        1.331792   -2.184770   -0.000382
     10          6           0        2.702790   -1.945279    0.000030
     11          6           0        3.174101   -0.638424    0.000079
     12          6           0        2.270574    0.426335   -0.000207
     13          7           0        0.609254    3.743269   -0.000487
     14          6           0        0.295761    2.625912    0.000281
     15          1           0       -1.300871   -2.449090    0.000206
     16          1           0       -2.196357    1.758224    0.000364
     17          1           0        3.396981   -2.780656    0.000385
     18          1           0        4.243900   -0.442191    0.000351
     19          1           0        2.679757    1.436448    0.000174
 ---------------------------------------------------------------------
 Rotational constants (GHZ):      1.0202800      0.6015796      0.3784419
 Standard basis: STO-3G (5D, 7F)
 There are    75 symmetry adapted cartesian basis functions of A   symmetry.
 There are    75 symmetry adapted basis functions of A   symmetry.
    75 basis functions,   225 primitive gaussians,    75 cartesian basis functions
    46 alpha electrons       46 beta electrons
       nuclear repulsion energy       708.5766258747 Hartrees.
 NAtoms=   19 NActive=   19 NUniq=   19 SFac= 1.00D+00 NAtFMM=   60 NAOKFM=F Big=F
 Integral buffers will be    131072 words long.
 Raffenetti 2 integral format.
 Two-electron integral symmetry is turned on.
 One-electron integrals computed using PRISM.
 NBasis=    75 RedAO= T EigKep=  1.55D-01  NBF=    75
 NBsUse=    75 1.00D-06 EigRej= -1.00D+00 NBFU=    75
 ExpMin= 1.69D-01 ExpMax= 9.91D+01 ExpMxC= 9.91D+01 IAcc=1 IRadAn=         1 AccDes= 0.00D+00
 Harris functional with IExCor=  402 and IRadAn=       1 diagonalized for initial guess.
 HarFok:  IExCor=  402 AccDes= 0.00D+00 IRadAn=         1 IDoV= 1 UseB2=F ITyADJ=14
 ICtDFT=  3500011 ScaDFX=  1.000000  1.000000  1.000000  1.000000
 FoFCou: FMM=F IPFlag=           0 FMFlag=      100000 FMFlg1=           0
         NFxFlg=           0 DoJE=T BraDBF=F KetDBF=T FulRan=T
         wScrn=  0.000000 ICntrl=     500 IOpCl=  0 I1Cent=   200000004 NGrid=           0
         NMat0=    1 NMatS0=      1 NMatT0=    0 NMatD0=    1 NMtDS0=    0 NMtDT0=    0
 Petite list used in FoFCou.
 Keep R1 ints in memory in canonical form, NReq=4993994.
 Requested convergence on RMS density matrix=1.00D-08 within 128 cycles.
 Requested convergence on MAX density matrix=1.00D-06.
 Requested convergence on             energy=1.00D-06.
 No special actions if energy rises.
 Integral accuracy reduced to 1.0D-05 until final iterations.
 EnCoef did     6 forward-backward iterations
 Rare condition: small coef for last iteration:  0.000D+00
 Initial convergence to 1.0D-05 achieved.  Increase integral accuracy.
 SCF Done:  E(RB3LYP) =  -562.473949229     A.U. after   29 cycles
            NFock= 29  Conv=0.24D-08     -V/T= 2.0128

 **********************************************************************

            Population analysis using the SCF density.

 **********************************************************************

 Orbital symmetries:
       Occupied  (A) (A) (A) (A) (A) (A) (A) (A) (A) (A) (A) (A)
                 (A) (A) (A) (A) (A) (A) (A) (A) (A) (A) (A) (A)
                 (A) (A) (A) (A) (A) (A) (A) (A) (A) (A) (A) (A)
                 (A) (A) (A) (A) (A) (A) (A) (A) (A) (A)
       Virtual   (A) (A) (A) (A) (A) (A) (A) (A) (A) (A) (A) (A)
                 (A) (A) (A) (A) (A) (A) (A) (A) (A) (A) (A) (A)
                 (A) (A) (A) (A) (A)
 The electronic state is 1-A.
 Alpha  occ. eigenvalues --  -13.99609 -13.99083  -9.90479  -9.90346  -9.90291
 Alpha  occ. eigenvalues --   -9.89742  -9.89385  -9.88066  -9.86285  -9.83458
 Alpha  occ. eigenvalues --   -9.83039  -9.82145  -9.78444  -9.63477  -0.74865
 Alpha  occ. eigenvalues --   -0.74299  -0.68862  -0.62406  -0.59554  -0.55441
 Alpha  occ. eigenvalues --   -0.50118  -0.46289  -0.43790  -0.40241  -0.35071
 Alpha  occ. eigenvalues --   -0.31416  -0.30884  -0.28945  -0.26087  -0.23064
 Alpha  occ. eigenvalues --   -0.22666  -0.20971  -0.19097  -0.19029  -0.16374
 Alpha  occ. eigenvalues --   -0.15848  -0.15636  -0.15415  -0.14969  -0.14109
 Alpha  occ. eigenvalues --   -0.11241  -0.10561  -0.07102  -0.03951   0.02751
 Alpha  occ. eigenvalues --    0.15818
 Alpha virt. eigenvalues --    0.16890   0.20021   0.26518   0.28006   0.28221
 Alpha virt. eigenvalues --    0.29850   0.35497   0.39613   0.44104   0.48677
 Alpha virt. eigenvalues --    0.49206   0.52682   0.55945   0.56056   0.59699
 Alpha virt. eigenvalues --    0.64167   0.65256   0.65761   0.70697   0.72765
 Alpha virt. eigenvalues --    0.74552   0.78447   0.83446   0.86435   0.87081
 Alpha virt. eigenvalues --    1.00231   1.00627   1.13865   1.14607
          Condensed to atoms (all electrons):
               1          2          3          4          5          6
     1  N    6.576459   0.687834  -0.000145  -0.011599  -0.000148  -0.000001
     2  C    0.687834   4.893130  -0.030685   0.428984  -0.032367   0.000998
     3  C   -0.000145  -0.030685   4.827994   0.493830  -0.030568  -0.010551
     4  C   -0.011599   0.428984   0.493830   4.771953   0.484784  -0.030458
     5  C   -0.000148  -0.032367  -0.030568   0.484784   4.820720   0.512884
     6  C   -0.000001   0.000998  -0.010551  -0.030458   0.512884   4.772958
     7  C    0.000000   0.000000  -0.036703  -0.008420  -0.029523   0.455923
     8  C   -0.000001   0.000986   0.486757  -0.029913  -0.010741  -0.027589
     9  C    0.000000  -0.000008  -0.041979   0.001077   0.000042   0.001164
    10  C    0.000000   0.000000   0.001434  -0.000017   0.000001   0.000050
    11  C    0.000000   0.000000  -0.000029   0.000001  -0.000008   0.000834
    12  C    0.000000   0.000000   0.000943   0.000046   0.000755  -0.030088
    13  N    0.000000   0.000000   0.000000  -0.000001  -0.000202  -0.011162
    14  C    0.000000  -0.000008   0.000000   0.001047  -0.034401   0.424465
    15  H    0.000060  -0.003716   0.387354  -0.026663   0.001433   0.000029
    16  H    0.000068  -0.003888   0.001421  -0.025558   0.390112  -0.024753
    17  H    0.000000   0.000000  -0.000002   0.000000   0.000000   0.000002
    18  H    0.000000   0.000000   0.000002   0.000000   0.000000  -0.000013
    19  H    0.000000   0.000000  -0.000023  -0.000001   0.000012  -0.003623
               7          8          9         10         11         12
     1  N    0.000000  -0.000001   0.000000   0.000000   0.000000   0.000000
     2  C    0.000000   0.000986  -0.000008   0.000000   0.000000   0.000000
     3  C   -0.036703   0.486757  -0.041979   0.001434  -0.000029   0.000943
     4  C   -0.008420  -0.029913   0.001077  -0.000017   0.000001   0.000046
     5  C   -0.029523  -0.010741   0.000042   0.000001  -0.000008   0.000755
     6  C    0.455923  -0.027589   0.001164   0.000050   0.000834  -0.030088
     7  C    4.814757   0.440485  -0.031077  -0.011963  -0.025603   0.496101
     8  C    0.440485   4.833620   0.449089  -0.028615  -0.012087  -0.033576
     9  C   -0.031077   0.449089   5.449301   0.486073  -0.029083  -0.013774
    10  C   -0.011963  -0.028615   0.486073   4.888965   0.484543  -0.033754
    11  C   -0.025603  -0.012087  -0.029083   0.484543   4.847707   0.511326
    12  C    0.496101  -0.033576  -0.013774  -0.033754   0.511326   4.870651
    13  N   -0.000057  -0.000002   0.000000   0.000000   0.000000  -0.000103
    14  C   -0.028333   0.000970  -0.000009   0.000000   0.000016  -0.004204
    15  H    0.001552  -0.023797  -0.001868   0.000037   0.000001  -0.000018
    16  H    0.001302   0.000045   0.000001   0.000000   0.000000  -0.000018
    17  H   -0.000045   0.002091  -0.036001   0.387022  -0.034810   0.001447
    18  H    0.001377   0.000094   0.001758  -0.025932   0.380607  -0.027568
    19  H   -0.025444   0.001330   0.000050   0.001509  -0.028268   0.389161
              13         14         15         16         17         18
     1  N    0.000000   0.000000   0.000060   0.000068   0.000000   0.000000
     2  C    0.000000  -0.000008  -0.003716  -0.003888   0.000000   0.000000
     3  C    0.000000   0.000000   0.387354   0.001421  -0.000002   0.000002
     4  C   -0.000001   0.001047  -0.026663  -0.025558   0.000000   0.000000
     5  C   -0.000202  -0.034401   0.001433   0.390112   0.000000   0.000000
     6  C   -0.011162   0.424465   0.000029  -0.024753   0.000002  -0.000013
     7  C   -0.000057  -0.028333   0.001552   0.001302  -0.000045   0.001377
     8  C   -0.000002   0.000970  -0.023797   0.000045   0.002091   0.000094
     9  C    0.000000  -0.000009  -0.001868   0.000001  -0.036001   0.001758
    10  C    0.000000   0.000000   0.000037   0.000000   0.387022  -0.025932
    11  C    0.000000   0.000016   0.000001   0.000000  -0.034810   0.380607
    12  C   -0.000103  -0.004204  -0.000018  -0.000018   0.001447  -0.027568
    13  N    6.578153   0.686008   0.000000   0.000054   0.000000   0.000000
    14  C    0.686008   4.896070   0.000001  -0.004052   0.000000   0.000000
    15  H    0.000000   0.000001   0.581340  -0.000039  -0.000005   0.000000
    16  H    0.000054  -0.004052  -0.000039   0.592659   0.000000   0.000000
    17  H    0.000000   0.000000  -0.000005   0.000000   0.663785  -0.002854
    18  H    0.000000   0.000000   0.000000   0.000000  -0.002854   0.639884
    19  H   -0.000157   0.001214   0.000000  -0.000001  -0.000044  -0.004271
              19
     1  N    0.000000
     2  C    0.000000
     3  C   -0.000023
     4  C   -0.000001
     5  C    0.000012
     6  C   -0.003623
     7  C   -0.025444
     8  C    0.001330
     9  C    0.000050
    10  C    0.001509
    11  C   -0.028268
    12  C    0.389161
    13  N   -0.000157
    14  C    0.001214
    15  H    0.000000
    16  H   -0.000001
    17  H   -0.000044
    18  H   -0.004271
    19  H    0.624682
 Mulliken charges:
               1
     1  N   -0.252526
     2  C    0.058742
     3  C   -0.049050
     4  C   -0.049091
     5  C   -0.072784
     6  C   -0.031068
     7  C   -0.014331
     8  C   -0.049146
     9  C   -0.234755
    10  C   -0.149353
    11  C   -0.095148
    12  C   -0.127327
    13  N   -0.252532
    14  C    0.061217
    15  H    0.084299
    16  H    0.072648
    17  H    0.019415
    18  H    0.036915
    19  H    0.043874
 Sum of Mulliken charges =  -1.00000
 Mulliken charges with hydrogens summed into heavy atoms:
               1
     1  N   -0.252526
     2  C    0.058742
     3  C    0.035250
     4  C   -0.049091
     5  C   -0.000136
     6  C   -0.031068
     7  C   -0.014331
     8  C   -0.049146
     9  C   -0.234755
    10  C   -0.129938
    11  C   -0.058234
    12  C   -0.083453
    13  N   -0.252532
    14  C    0.061217
 Electronic spatial extent (au):  <R**2>=           2710.0140
 Charge=             -1.0000 electrons
 Dipole moment (field-independent basis, Debye):
    X=             -0.4671    Y=              2.1220    Z=              0.0026  Tot=              2.1728
 Quadrupole moment (field-independent basis, Debye-Ang):
   XX=           -107.9586   YY=           -107.1837   ZZ=            -73.8068
   XY=             -0.7481   XZ=             -0.0006   YZ=              0.0014
 Traceless Quadrupole moment (field-independent basis, Debye-Ang):
   XX=            -11.6422   YY=            -10.8673   ZZ=             22.5095
   XY=             -0.7481   XZ=             -0.0006   YZ=              0.0014
 Octapole moment (field-independent basis, Debye-Ang**2):
  XXX=            106.2198  YYY=            -36.0920  ZZZ=             -0.0020  XYY=            -37.4834
  XXY=             42.3665  XXZ=              0.0182  XZZ=             -4.5037  YZZ=              2.6826
  YYZ=              0.0241  XYZ=              0.0037
 Hexadecapole moment (field-independent basis, Debye-Ang**3):
 XXXX=          -2826.2905 YYYY=          -1725.8176 ZZZZ=            -57.9666 XXXY=           -100.9597
 XXXZ=             -0.0510 YYYX=              3.9671 YYYZ=              0.0414 ZZZX=              0.0028
 ZZZY=             -0.0033 XXYY=           -616.8215 XXZZ=           -369.2658 YYZZ=           -219.1247
 XXYZ=             -0.0141 YYXZ=              0.0173 ZZXY=              6.4471
 N-N= 7.085766258747D+02 E-N=-2.739274224722D+03  KE= 5.553754178977D+02
 Calling FoFJK, ICntrl=      2127 FMM=F ISym2X=0 I1Cent= 0 IOpClX= 0 NMat=1 NMatS=1 NMatT=0.
 ***** Axes restored to original set *****
 -------------------------------------------------------------------
 Center     Atomic                   Forces (Hartrees/Bohr)
 Number     Number              X              Y              Z
 -------------------------------------------------------------------
      1        7          -0.103959244   -0.004182633    0.000049282
      2        6           0.081261933    0.004411278   -0.000038109
      3        6          -0.012820210    0.001863881   -0.000004744
      4        6          -0.011936179   -0.017131756    0.000018972
      5        6           0.019768175    0.026547154   -0.000010350
      6        6          -0.025953663    0.017461346    0.000084523
      7        6           0.026876934    0.020667490   -0.000101525
      8        6           0.017722815   -0.009877721    0.000026148
      9        6          -0.022719857   -0.097273234    0.000008314
     10        6          -0.019087048    0.014309562   -0.000000330
     11        6           0.010390878    0.006665868   -0.000023900
     12        6           0.011898848    0.011982442    0.000079176
     13        7           0.044824338    0.094726250   -0.000055445
     14        6          -0.035286027   -0.072747003    0.000015664
     15        1          -0.001163256   -0.007528119   -0.000015495
     16        1          -0.002697896    0.005139416    0.000000536
     17        1           0.012220765   -0.009724089   -0.000005246
     18        1           0.013026308    0.006757402   -0.000015416
     19        1          -0.002367613    0.007932466   -0.000012054
 -------------------------------------------------------------------
 Cartesian Forces:  Max     0.103959244 RMS     0.029856661

 GradGradGradGradGradGradGradGradGradGradGradGradGradGradGradGradGradGrad
 Berny optimization.
 FormGI is forming the generalized inverse of G from B-inverse, IUseBI=4.
 Internal  Forces:  Max     0.104796508 RMS     0.021566384
 Search for a local minimum.
 Step number   1 out of a maximum of  102
 All quantities printed in internal units (Hartrees-Bohrs-Radians)
 Mixed Optimization -- RFO/linear search
 Second derivative matrix not updated -- first step.
 ITU=  0
     Eigenvalues ---    0.01640   0.01640   0.01897   0.01906   0.01949
     Eigenvalues ---    0.01971   0.02008   0.02040   0.02088   0.02092
     Eigenvalues ---    0.02099   0.02117   0.02137   0.02179   0.02191
     Eigenvalues ---    0.02220   0.04860   0.04860   0.16000   0.16000
     Eigenvalues ---    0.16000   0.16000   0.16000   0.22083   0.23366
     Eigenvalues ---    0.23489   0.23539   0.24912   0.25000   0.25000
     Eigenvalues ---    0.25000   0.34747   0.34749   0.34831   0.35086
     Eigenvalues ---    0.35260   0.38368   0.40309   0.40434   0.40653
     Eigenvalues ---    0.41335   0.43192   0.44063   0.45081   0.45236
     Eigenvalues ---    0.45897   0.46058   0.46090   0.47078   1.27465
     Eigenvalues ---    1.27665
 RFO step:  Lambda=-6.52277195D-02 EMin= 1.64034510D-02
 Linear search not attempted -- first point.
 Maximum step size (   0.300) exceeded in Quadratic search.
    -- Step size scaled by   0.818
 Iteration  1 RMS(Cart)=  0.04585464 RMS(Int)=  0.00117097
 Iteration  2 RMS(Cart)=  0.00223667 RMS(Int)=  0.00031200
 Iteration  3 RMS(Cart)=  0.00000113 RMS(Int)=  0.00031200
 Iteration  4 RMS(Cart)=  0.00000000 RMS(Int)=  0.00031200
 Variable       Old X    -DE/DX   Delta X   Delta X   Delta X     New X
                                 (Linear)    (Quad)   (Total)
    R1        2.19245   0.10404   0.00000   0.06346   0.06346   2.25591
    R2        2.70968   0.02266   0.00000   0.03950   0.03950   2.74918
    R3        2.64046   0.02351   0.00000   0.03610   0.03622   2.67667
    R4        2.64857   0.02984   0.00000   0.04826   0.04848   2.69705
    R5        2.06088   0.00721   0.00000   0.01431   0.01431   2.07519
    R6        2.63711   0.03888   0.00000   0.05849   0.05838   2.69549
    R7        2.65156   0.00135   0.00000   0.00093   0.00070   2.65226
    R8        2.06084   0.00578   0.00000   0.01147   0.01147   2.07231
    R9        2.67823   0.04042   0.00000   0.06745   0.06733   2.74556
   R10        2.71136   0.02395   0.00000   0.04186   0.04186   2.75322
   R11        2.67570   0.05919   0.00000   0.10150   0.10145   2.77715
   R12        2.67642   0.00081   0.00000   0.00064   0.00002   2.67644
   R13        2.64254   0.05540   0.00000   0.08901   0.08944   2.73198
   R14        2.63004   0.02558   0.00000   0.03971   0.04031   2.67035
   R15        2.62529   0.04100   0.00000   0.06031   0.06049   2.68578
   R16        2.05256   0.01458   0.00000   0.02855   0.02855   2.08111
   R17        2.63891   0.00892   0.00000   0.01135   0.01091   2.64982
   R18        2.05536   0.01315   0.00000   0.02587   0.02587   2.08122
   R19        2.05951   0.00554   0.00000   0.01096   0.01096   2.07047
   R20        2.19303   0.10480   0.00000   0.06401   0.06401   2.25704
    A1        2.10539   0.01006   0.00000   0.03032   0.03061   2.13600
    A2        2.08817  -0.00252   0.00000  -0.00606  -0.00620   2.08196
    A3        2.08963  -0.00753   0.00000  -0.02426  -0.02441   2.06522
    A4        2.10125   0.00014   0.00000   0.00212   0.00215   2.10340
    A5        2.09321  -0.00165   0.00000  -0.00252  -0.00250   2.09071
    A6        2.08873   0.00151   0.00000   0.00040   0.00035   2.08907
    A7        2.10007   0.00324   0.00000   0.00412   0.00372   2.10379
    A8        2.09132  -0.00108   0.00000  -0.00011   0.00009   2.09141
    A9        2.09179  -0.00216   0.00000  -0.00401  -0.00381   2.08799
   A10        2.10735  -0.00102   0.00000  -0.00369  -0.00410   2.10326
   A11        2.05924   0.00033   0.00000   0.00137   0.00157   2.06081
   A12        2.11660   0.00069   0.00000   0.00232   0.00252   2.11912
   A13        2.06163   0.00724   0.00000   0.02186   0.02225   2.08388
   A14        2.16548  -0.00644   0.00000  -0.01949  -0.01899   2.14649
   A15        2.05608  -0.00079   0.00000  -0.00237  -0.00326   2.05282
   A16        2.10320  -0.02102   0.00000  -0.05301  -0.05283   2.05037
   A17        2.08667  -0.00426   0.00000  -0.01701  -0.01727   2.06940
   A18        2.09331   0.02528   0.00000   0.07002   0.07010   2.16341
   A19        2.11577  -0.05357   0.00000  -0.13227  -0.13065   1.98512
   A20        2.08986   0.02660   0.00000   0.07308   0.07382   2.16368
   A21        2.09121  -0.00755   0.00000  -0.01565  -0.01601   2.07520
   A22        2.10211  -0.01905   0.00000  -0.05744  -0.05780   2.04431
   A23        2.09180   0.01055   0.00000   0.02124   0.02087   2.11268
   A24        2.09834   0.00140   0.00000   0.01365   0.01383   2.11216
   A25        2.09305  -0.01195   0.00000  -0.03488  -0.03470   2.05835
   A26        2.11955  -0.00807   0.00000  -0.02970  -0.03089   2.08866
   A27        2.11059  -0.00229   0.00000  -0.00814  -0.00754   2.10305
   A28        2.05304   0.01036   0.00000   0.03784   0.03843   2.09147
   A29        3.13089   0.00159   0.00000   0.01590   0.01590   3.14678
   A30        3.14346  -0.00143   0.00000  -0.01026  -0.01026   3.13320
   A31        3.14199  -0.00002   0.00000  -0.00024  -0.00024   3.14175
   A32        3.14082   0.00007   0.00000   0.00053   0.00053   3.14136
    D1        3.14129   0.00000   0.00000   0.00006   0.00006   3.14136
    D2       -0.00018   0.00000   0.00000   0.00004   0.00004  -0.00014
    D3       -0.00032   0.00001   0.00000   0.00006   0.00006  -0.00025
    D4        3.14139   0.00000   0.00000   0.00004   0.00004   3.14144
    D5        0.00053  -0.00002   0.00000  -0.00016  -0.00015   0.00037
    D6       -3.14156   0.00000   0.00000   0.00000  -0.00001  -3.14157
    D7       -3.14105  -0.00002   0.00000  -0.00016  -0.00016  -3.14120
    D8        0.00005   0.00000   0.00000  -0.00001  -0.00001   0.00004
    D9       -3.14149   0.00000   0.00000   0.00000   0.00000  -3.14149
   D10        0.00012   0.00000   0.00000  -0.00003  -0.00003   0.00010
   D11       -0.00002   0.00000   0.00000   0.00002   0.00002   0.00001
   D12       -3.14159   0.00000   0.00000  -0.00001  -0.00001  -3.14159
   D13       -0.00013   0.00000   0.00000   0.00001   0.00001  -0.00012
   D14       -3.14159   0.00000   0.00000  -0.00005  -0.00005   3.14154
   D15        3.14144   0.00000   0.00000   0.00004   0.00004   3.14147
   D16       -0.00002   0.00000   0.00000  -0.00002  -0.00003  -0.00005
   D17        0.00046  -0.00001   0.00000  -0.00010  -0.00010   0.00036
   D18        3.14123   0.00001   0.00000   0.00006   0.00006   3.14129
   D19       -3.14127   0.00000   0.00000  -0.00004  -0.00004  -3.14131
   D20       -0.00050   0.00001   0.00000   0.00012   0.00012  -0.00038
   D21       -0.00066   0.00002   0.00000   0.00018   0.00018  -0.00048
   D22        3.14143   0.00001   0.00000   0.00005   0.00005   3.14149
   D23       -3.14148   0.00001   0.00000   0.00004   0.00004  -3.14144
   D24        0.00061  -0.00001   0.00000  -0.00009  -0.00009   0.00052
   D25        3.14142   0.00001   0.00000   0.00007   0.00008   3.14150
   D26        0.00087  -0.00002   0.00000  -0.00018  -0.00017   0.00070
   D27       -0.00100   0.00003   0.00000   0.00025   0.00025  -0.00075
   D28       -3.14155   0.00000   0.00000   0.00000   0.00000  -3.14155
   D29       -3.14101  -0.00002   0.00000  -0.00020  -0.00020  -3.14121
   D30        0.00009  -0.00001   0.00000  -0.00009  -0.00008   0.00001
   D31       -0.00044   0.00002   0.00000   0.00012   0.00012  -0.00032
   D32        3.14107   0.00002   0.00000   0.00011   0.00010   3.14117
   D33        0.00006   0.00001   0.00000   0.00003   0.00003   0.00009
   D34       -3.14154   0.00001   0.00000   0.00001   0.00001  -3.14153
   D35       -3.14145   0.00001   0.00000   0.00005   0.00005  -3.14140
   D36        0.00013   0.00001   0.00000   0.00003   0.00003   0.00016
   D37        0.00067  -0.00001   0.00000  -0.00019  -0.00019   0.00048
   D38        3.14125   0.00000   0.00000   0.00003   0.00003   3.14128
   D39       -3.14091  -0.00001   0.00000  -0.00017  -0.00017  -3.14108
   D40       -0.00033   0.00001   0.00000   0.00005   0.00005  -0.00028
         Item               Value     Threshold  Converged?
 Maximum Force            0.104797     0.000450     NO 
 RMS     Force            0.021566     0.000300     NO 
 Maximum Displacement     0.269595     0.001800     NO 
 RMS     Displacement     0.045218     0.001200     NO 
 Predicted change in Energy=-3.445942D-02
 GradGradGradGradGradGradGradGradGradGradGradGradGradGradGradGradGradGrad

                          Input orientation:                          
 ---------------------------------------------------------------------
 Center     Atomic      Atomic             Coordinates (Angstroms)
 Number     Number       Type             X           Y           Z
 ---------------------------------------------------------------------
      1          7           0        1.094304   -0.232958   -0.023575
      2          6           0        2.286943   -0.180860   -0.024205
      3          6           0        4.506296   -1.316593   -0.025910
      4          6           0        3.740669   -0.124914   -0.025156
      5          6           0        4.401183    1.139333   -0.025451
      6          6           0        5.802835    1.211642   -0.026487
      7          6           0        6.603909   -0.000448   -0.027124
      8          6           0        5.933489   -1.308225   -0.027139
      9          6           0        6.632261   -2.573834   -0.027872
     10          6           0        8.039613   -2.446625   -0.028577
     11          6           0        8.724412   -1.201228   -0.028958
     12          6           0        8.020170    0.011322   -0.028535
     13          7           0        6.937527    3.607856   -0.027333
     14          6           0        6.421391    2.530759   -0.026803
     15          1           0        3.990878   -2.286264   -0.025529
     16          1           0        3.810582    2.063326   -0.024866
     17          1           0        8.656473   -3.358923   -0.028759
     18          1           0        9.824927   -1.158697   -0.029565
     19          1           0        8.568317    0.959990   -0.028546
 ---------------------------------------------------------------------
                    Distance matrix (angstroms):
                    1          2          3          4          5
     1  N    0.000000
     2  C    1.193777   0.000000
     3  C    3.579938   2.493074   0.000000
     4  C    2.648571   1.454802   1.416434   0.000000
     5  C    3.580312   2.492573   2.458175   1.426393   0.000000
     6  C    4.925154   3.781608   2.841300   2.457419   1.403516
     7  C    5.514510   4.320734   2.476331   2.865944   2.480142
     8  C    4.957209   3.816838   1.427218   2.491724   2.887647
     9  C    6.012377   4.960657   2.469896   3.789263   4.331896
    10  C    7.289559   6.182792   3.709624   4.885824   5.108549
    11  C    7.691302   6.517835   4.219695   5.098643   4.916152
    12  C    6.930174   5.736448   3.756418   4.281670   3.790710
    13  N    6.992505   5.998526   5.491911   4.914619   3.539301
    14  C    6.001333   4.944345   4.297640   3.773443   2.453020
    15  H    3.550522   2.708527   1.098143   2.175785   3.450082
    16  H    3.556836   2.712535   3.450778   2.189356   1.096619
    17  H    8.182792   7.118357   4.625483   5.884213   6.192077
    18  H    8.779567   7.601144   5.320975   6.171459   5.890497
    19  H    7.568621   6.384138   4.656485   4.948051   4.170993
                    6          7          8          9         10
     6  C    0.000000
     7  C    1.452887   0.000000
     8  C    2.523251   1.469606   0.000000
     9  C    3.875277   2.573542   1.445700   0.000000
    10  C    4.287901   2.836376   2.394100   1.413090   0.000000
    11  C    3.789137   2.436886   2.792974   2.502228   1.421254
    12  C    2.521377   1.416311   2.468895   2.934165   2.458024
    13  N    2.651296   3.623695   5.017564   6.189223   6.153969
    14  C    1.456943   2.537779   3.869864   5.108946   5.233831
    15  H    3.939357   3.471727   2.174926   2.656992   4.051911
    16  H    2.166666   3.473016   3.984230   5.428179   6.182586
    17  H    5.388257   3.936036   3.408814   2.171129   1.101274
    18  H    4.668590   3.422938   3.894310   3.492239   2.201386
    19  H    2.776909   2.186629   3.476654   4.029420   3.447398
                   11         12         13         14         15
    11  C    0.000000
    12  C    1.402225   0.000000
    13  N    5.130327   3.755952   0.000000
    14  C    4.385389   2.983900   1.194377   0.000000
    15  H    4.856301   4.638330   6.589644   5.395471   0.000000
    16  H    5.899412   4.683093   3.487602   2.652324   4.353325
    17  H    2.158765   3.429787   7.175709   6.299520   4.787315
    18  H    1.101336   2.150835   5.572891   5.019576   5.942016
    19  H    2.166848   1.095644   3.109771   2.660190   5.611696
                   16         17         18         19
    16  H    0.000000
    17  H    7.272101   0.000000
    18  H    6.823034   2.491241   0.000000
    19  H    4.883995   4.319813   2.463311   0.000000
 Stoichiometry    C12H5N2(1-)
 Framework group  C1[X(C12H5N2)]
 Deg. of freedom    51
 Full point group                 C1      NOp   1
 Largest Abelian subgroup         C1      NOp   1
 Largest concise Abelian subgroup C1      NOp   1
                         Standard orientation:                         
 ---------------------------------------------------------------------
 Center     Atomic      Atomic             Coordinates (Angstroms)
 Number     Number       Type             X           Y           Z
 ---------------------------------------------------------------------
      1          7           0       -4.510471   -0.895158   -0.000178
      2          6           0       -3.341100   -0.654998    0.000039
      3          6           0       -0.969995   -1.425242    0.000058
      4          6           0       -1.914542   -0.369725    0.000124
      5          6           0       -1.462398    0.983110    0.000154
      6          6           0       -0.089846    1.276299    0.000114
      7          6           0        0.892930    0.206238    0.000193
      8          6           0        0.437894   -1.191147   -0.000148
      9          6           0        1.328127   -2.330240   -0.000232
     10          6           0        2.697620   -1.981941    0.000057
     11          6           0        3.176725   -0.643875    0.000020
     12          6           0        2.289487    0.441963   -0.000204
     13          7           0        0.651384    3.821873   -0.000200
     14          6           0        0.312186    2.676675    0.000086
     15          1           0       -1.325483   -2.464254    0.000184
     16          1           0       -2.191767    1.802008    0.000207
     17          1           0        3.451066   -2.785136    0.000424
     18          1           0        4.256645   -0.427739    0.000197
     19          1           0        2.680615    1.465415    0.000066
 ---------------------------------------------------------------------
 Rotational constants (GHZ):      0.9709102      0.5908065      0.3673010
 Standard basis: STO-3G (5D, 7F)
 There are    75 symmetry adapted cartesian basis functions of A   symmetry.
 There are    75 symmetry adapted basis functions of A   symmetry.
    75 basis functions,   225 primitive gaussians,    75 cartesian basis functions
    46 alpha electrons       46 beta electrons
       nuclear repulsion energy       696.9454522223 Hartrees.
 NAtoms=   19 NActive=   19 NUniq=   19 SFac= 1.00D+00 NAtFMM=   60 NAOKFM=F Big=F
 Integral buffers will be    131072 words long.
 Raffenetti 2 integral format.
 Two-electron integral symmetry is turned on.
 One-electron integrals computed using PRISM.
 NBasis=    75 RedAO= T EigKep=  1.72D-01  NBF=    75
 NBsUse=    75 1.00D-06 EigRej= -1.00D+00 NBFU=    75
 Initial guess from the checkpoint file:  "/tmp/bnp.472628.sequoia/Gau-6294.chk"
 B after Tr=     0.000000    0.000000    0.000000
         Rot=    0.999996    0.000001    0.000000    0.002867 Ang=   0.33 deg.
 ExpMin= 1.69D-01 ExpMax= 9.91D+01 ExpMxC= 9.91D+01 IAcc=1 IRadAn=         1 AccDes= 0.00D+00
 Harris functional with IExCor=  402 and IRadAn=       1 diagonalized for initial guess.
 HarFok:  IExCor=  402 AccDes= 0.00D+00 IRadAn=         1 IDoV= 1 UseB2=F ITyADJ=14
 ICtDFT=  3500011 ScaDFX=  1.000000  1.000000  1.000000  1.000000
 FoFCou: FMM=F IPFlag=           0 FMFlag=      100000 FMFlg1=           0
         NFxFlg=           0 DoJE=T BraDBF=F KetDBF=T FulRan=T
         wScrn=  0.000000 ICntrl=     500 IOpCl=  0 I1Cent=   200000004 NGrid=           0
         NMat0=    1 NMatS0=      1 NMatT0=    0 NMatD0=    1 NMtDS0=    0 NMtDT0=    0
 Petite list used in FoFCou.
 Keep R1 ints in memory in canonical form, NReq=4993994.
 Requested convergence on RMS density matrix=1.00D-08 within 128 cycles.
 Requested convergence on MAX density matrix=1.00D-06.
 Requested convergence on             energy=1.00D-06.
 No special actions if energy rises.
 Integral accuracy reduced to 1.0D-05 until final iterations.
 Initial convergence to 1.0D-05 achieved.  Increase integral accuracy.
 SCF Done:  E(RB3LYP) =  -562.506340078     A.U. after   19 cycles
            NFock= 19  Conv=0.57D-08     -V/T= 2.0139
 Calling FoFJK, ICntrl=      2127 FMM=F ISym2X=0 I1Cent= 0 IOpClX= 0 NMat=1 NMatS=1 NMatT=0.
 ***** Axes restored to original set *****
 -------------------------------------------------------------------
 Center     Atomic                   Forces (Hartrees/Bohr)
 Number     Number              X              Y              Z
 -------------------------------------------------------------------
      1        7          -0.014893540   -0.000512001    0.000011533
      2        6           0.011525552    0.000627758   -0.000005436
      3        6          -0.001652592    0.007814970   -0.000012483
      4        6          -0.001594987   -0.007484503    0.000008609
      5        6           0.006617183    0.005876450   -0.000008867
      6        6          -0.010468291    0.001248524    0.000038673
      7        6           0.001796658    0.003174722   -0.000097210
      8        6           0.006256628    0.010659413    0.000047143
      9        6          -0.012662304   -0.038703362   -0.000006255
     10        6           0.001344130    0.015714752    0.000019128
     11        6           0.002088914   -0.004419574   -0.000004032
     12        6           0.005638943    0.002153048    0.000060726
     13        7           0.005992009    0.012981527   -0.000000113
     14        6          -0.002610029   -0.009666376   -0.000002961
     15        1          -0.000201458   -0.002032672   -0.000009209
     16        1          -0.001318543    0.000637186   -0.000002120
     17        1           0.004114252   -0.000402664   -0.000009017
     18        1           0.001617568    0.000410267   -0.000014293
     19        1          -0.001590093    0.001922534   -0.000013817
 -------------------------------------------------------------------
 Cartesian Forces:  Max     0.038703362 RMS     0.007419392

 GradGradGradGradGradGradGradGradGradGradGradGradGradGradGradGradGradGrad
 Berny optimization.
 Using GEDIIS/GDIIS optimizer.
 FormGI is forming the generalized inverse of G from B-inverse, IUseBI=4.
 Internal  Forces:  Max     0.021157756 RMS     0.004851585
 Search for a local minimum.
 Step number   2 out of a maximum of  102
 All quantities printed in internal units (Hartrees-Bohrs-Radians)
 Mixed Optimization -- RFO/linear search
 Update second derivatives using D2CorX and points    1    2
 DE= -3.24D-02 DEPred=-3.45D-02 R= 9.40D-01
 TightC=F SS=  1.41D+00  RLast= 3.00D-01 DXNew= 5.0454D-01 8.9987D-01
 Trust test= 9.40D-01 RLast= 3.00D-01 DXMaxT set to 5.05D-01
 ITU=  1  0
 Use linear search instead of GDIIS.
     Eigenvalues ---    0.01640   0.01642   0.01897   0.01906   0.01949
     Eigenvalues ---    0.01971   0.02010   0.02042   0.02084   0.02092
     Eigenvalues ---    0.02098   0.02117   0.02137   0.02180   0.02195
     Eigenvalues ---    0.02220   0.04860   0.04863   0.15930   0.16000
     Eigenvalues ---    0.16000   0.16000   0.16098   0.21883   0.22547
     Eigenvalues ---    0.23498   0.23508   0.24626   0.24998   0.25000
     Eigenvalues ---    0.25225   0.34745   0.34752   0.34838   0.35131
     Eigenvalues ---    0.35323   0.38558   0.40330   0.40576   0.40768
     Eigenvalues ---    0.41112   0.43137   0.43446   0.45163   0.45251
     Eigenvalues ---    0.45920   0.46066   0.46466   0.51133   1.27566
     Eigenvalues ---    1.32709
 RFO step:  Lambda=-3.03549556D-03 EMin= 1.64034507D-02
 Quartic linear search produced a step of  0.34492.
 Iteration  1 RMS(Cart)=  0.02176987 RMS(Int)=  0.00066588
 Iteration  2 RMS(Cart)=  0.00120694 RMS(Int)=  0.00027429
 Iteration  3 RMS(Cart)=  0.00000039 RMS(Int)=  0.00027429
 Variable       Old X    -DE/DX   Delta X   Delta X   Delta X     New X
                                 (Linear)    (Quad)   (Total)
    R1        2.25591   0.01490   0.02189  -0.00894   0.01295   2.26886
    R2        2.74918   0.00336   0.01363  -0.00482   0.00880   2.75798
    R3        2.67667  -0.00026   0.01249  -0.01581  -0.00324   2.67344
    R4        2.69705   0.00413   0.01672  -0.00711   0.00974   2.70680
    R5        2.07519   0.00189   0.00493   0.00143   0.00636   2.08155
    R6        2.69549   0.00617   0.02014  -0.00630   0.01379   2.70928
    R7        2.65226  -0.00268   0.00024  -0.00838  -0.00826   2.64400
    R8        2.07231   0.00125   0.00396   0.00013   0.00408   2.07639
    R9        2.74556   0.00705   0.02322  -0.00448   0.01866   2.76421
   R10        2.75322   0.00444   0.01444  -0.00217   0.01227   2.76550
   R11        2.77715   0.00802   0.03499  -0.01344   0.02148   2.79863
   R12        2.67644   0.00109   0.00001   0.00286   0.00233   2.67877
   R13        2.73198   0.02116   0.03085   0.02778   0.05899   2.79097
   R14        2.67035   0.01335   0.01390   0.02223   0.03665   2.70701
   R15        2.68578   0.00228   0.02086  -0.01923   0.00178   2.68756
   R16        2.08111   0.00264   0.00985  -0.00162   0.00823   2.08934
   R17        2.64982   0.00106   0.00376  -0.00328   0.00009   2.64991
   R18        2.08122   0.00163   0.00892  -0.00431   0.00461   2.08583
   R19        2.07047   0.00087   0.00378  -0.00114   0.00264   2.07311
   R20        2.25704   0.01430   0.02208  -0.00976   0.01232   2.26936
    A1        2.13600   0.00495   0.01056   0.01607   0.02679   2.16279
    A2        2.08196  -0.00168  -0.00214  -0.00541  -0.00763   2.07434
    A3        2.06522  -0.00328  -0.00842  -0.01066  -0.01916   2.04606
    A4        2.10340   0.00072   0.00074   0.00407   0.00482   2.10822
    A5        2.09071  -0.00032  -0.00086   0.00045  -0.00040   2.09031
    A6        2.08907  -0.00040   0.00012  -0.00453  -0.00442   2.08465
    A7        2.10379  -0.00096   0.00128  -0.00882  -0.00778   2.09601
    A8        2.09141  -0.00031   0.00003  -0.00295  -0.00280   2.08860
    A9        2.08799   0.00127  -0.00131   0.01177   0.01058   2.09857
   A10        2.10326   0.00134  -0.00141   0.00992   0.00823   2.11148
   A11        2.06081   0.00140   0.00054   0.00622   0.00690   2.06771
   A12        2.11912  -0.00274   0.00087  -0.01614  -0.01513   2.10399
   A13        2.08388   0.00106   0.00768  -0.00165   0.00635   2.09023
   A14        2.14649  -0.00120  -0.00655  -0.00047  -0.00656   2.13992
   A15        2.05282   0.00014  -0.00112   0.00212   0.00022   2.05303
   A16        2.05037  -0.00599  -0.01822  -0.01099  -0.02917   2.02120
   A17        2.06940  -0.00335  -0.00596  -0.01422  -0.02035   2.04905
   A18        2.16341   0.00935   0.02418   0.02521   0.04952   2.21293
   A19        1.98512  -0.02093  -0.04506  -0.05177  -0.09534   1.88979
   A20        2.16368   0.01155   0.02546   0.03490   0.06097   2.22465
   A21        2.07520  -0.00247  -0.00552   0.00068  -0.00515   2.07005
   A22        2.04431  -0.00908  -0.01994  -0.03558  -0.05582   1.98849
   A23        2.11268   0.00260   0.00720  -0.00144   0.00540   2.11807
   A24        2.11216  -0.00094   0.00477  -0.00694  -0.00199   2.11018
   A25        2.05835  -0.00165  -0.01197   0.00838  -0.00341   2.05494
   A26        2.08866  -0.00270  -0.01065  -0.00902  -0.02076   2.06790
   A27        2.10305  -0.00107  -0.00260  -0.00539  -0.00745   2.09560
   A28        2.09147   0.00377   0.01326   0.01441   0.02821   2.11968
   A29        3.14678  -0.00033   0.00548  -0.03638  -0.03090   3.11588
   A30        3.13320   0.00045  -0.00354   0.01743   0.01390   3.14710
   A31        3.14175  -0.00001  -0.00008  -0.00025  -0.00034   3.14141
   A32        3.14136   0.00001   0.00018   0.00004   0.00022   3.14157
    D1        3.14136   0.00001   0.00002   0.00036   0.00039  -3.14144
    D2       -0.00014   0.00000   0.00001   0.00023   0.00025   0.00011
    D3       -0.00025   0.00000   0.00002   0.00021   0.00023  -0.00003
    D4        3.14144   0.00000   0.00001   0.00008   0.00009   3.14153
    D5        0.00037  -0.00001  -0.00005  -0.00058  -0.00064  -0.00026
    D6       -3.14157   0.00000   0.00000  -0.00018  -0.00020   3.14142
    D7       -3.14120  -0.00001  -0.00005  -0.00043  -0.00048   3.14150
    D8        0.00004   0.00000   0.00000  -0.00002  -0.00004   0.00000
    D9       -3.14149   0.00000   0.00000  -0.00014  -0.00014   3.14155
   D10        0.00010   0.00000  -0.00001  -0.00007  -0.00008   0.00002
   D11        0.00001   0.00000   0.00001  -0.00002   0.00000   0.00000
   D12       -3.14159   0.00000   0.00000   0.00006   0.00006  -3.14153
   D13       -0.00012   0.00000   0.00000   0.00018   0.00018   0.00006
   D14        3.14154   0.00000  -0.00002   0.00024   0.00022  -3.14142
   D15        3.14147   0.00000   0.00001   0.00011   0.00012  -3.14159
   D16       -0.00005   0.00000  -0.00001   0.00017   0.00016   0.00011
   D17        0.00036  -0.00001  -0.00004  -0.00054  -0.00059  -0.00023
   D18        3.14129   0.00001   0.00002   0.00039   0.00040  -3.14149
   D19       -3.14131  -0.00001  -0.00001  -0.00061  -0.00062   3.14126
   D20       -0.00038   0.00001   0.00004   0.00033   0.00037  -0.00001
   D21       -0.00048   0.00001   0.00006   0.00073   0.00079   0.00031
   D22        3.14149   0.00001   0.00002   0.00031   0.00032  -3.14138
   D23       -3.14144   0.00000   0.00001  -0.00015  -0.00015  -3.14159
   D24        0.00052  -0.00001  -0.00003  -0.00058  -0.00062  -0.00010
   D25        3.14150   0.00000   0.00003  -0.00022  -0.00019   3.14130
   D26        0.00070  -0.00002  -0.00006  -0.00103  -0.00108  -0.00038
   D27       -0.00075   0.00002   0.00009   0.00070   0.00078   0.00003
   D28       -3.14155   0.00000   0.00000  -0.00011  -0.00011   3.14153
   D29       -3.14121  -0.00001  -0.00007  -0.00017  -0.00025  -3.14146
   D30        0.00001   0.00000  -0.00003   0.00025   0.00023   0.00024
   D31       -0.00032   0.00000   0.00004  -0.00008  -0.00003  -0.00035
   D32        3.14117   0.00001   0.00004   0.00042   0.00047  -3.14155
   D33        0.00009   0.00001   0.00001   0.00023   0.00025   0.00034
   D34       -3.14153   0.00001   0.00000   0.00047   0.00047  -3.14106
   D35       -3.14140   0.00000   0.00002  -0.00026  -0.00024   3.14155
   D36        0.00016   0.00000   0.00001  -0.00002  -0.00001   0.00015
   D37        0.00048  -0.00001  -0.00007  -0.00055  -0.00062  -0.00014
   D38        3.14128   0.00000   0.00001   0.00025   0.00027   3.14155
   D39       -3.14108  -0.00001  -0.00006  -0.00078  -0.00084   3.14126
   D40       -0.00028   0.00000   0.00002   0.00002   0.00005  -0.00023
         Item               Value     Threshold  Converged?
 Maximum Force            0.021158     0.000450     NO 
 RMS     Force            0.004852     0.000300     NO 
 Maximum Displacement     0.144666     0.001800     NO 
 RMS     Displacement     0.021564     0.001200     NO 
 Predicted change in Energy=-3.227233D-03
 GradGradGradGradGradGradGradGradGradGradGradGradGradGradGradGradGradGrad

                          Input orientation:                          
 ---------------------------------------------------------------------
 Center     Atomic      Atomic             Coordinates (Angstroms)
 Number     Number       Type             X           Y           Z
 ---------------------------------------------------------------------
      1          7           0        1.081256   -0.207011   -0.023151
      2          6           0        2.281736   -0.188054   -0.024247
      3          6           0        4.513971   -1.311692   -0.026096
      4          6           0        3.739940   -0.127500   -0.025354
      5          6           0        4.399463    1.145488   -0.025643
      6          6           0        5.797048    1.211505   -0.026656
      7          6           0        6.608304   -0.005675   -0.027512
      8          6           0        5.946222   -1.330411   -0.027017
      9          6           0        6.608753   -2.650388   -0.027492
     10          6           0        8.025958   -2.441707   -0.028211
     11          6           0        8.717325   -1.198867   -0.028850
     12          6           0        8.025596    0.020921   -0.028429
     13          7           0        6.949297    3.613781   -0.026758
     14          6           0        6.433220    2.529433   -0.026703
     15          1           0        3.997198   -2.284455   -0.025801
     16          1           0        3.801935    2.067590   -0.025013
     17          1           0        8.691060   -3.324914   -0.028689
     18          1           0        9.820545   -1.163852   -0.029885
     19          1           0        8.557354    0.980470   -0.028882
 ---------------------------------------------------------------------
                    Distance matrix (angstroms):
                    1          2          3          4          5
     1  N    0.000000
     2  C    1.200630   0.000000
     3  C    3.606087   2.499088   0.000000
     4  C    2.659874   1.459461   1.414721   0.000000
     5  C    3.583261   2.502620   2.459847   1.433691   0.000000
     6  C    4.924520   3.783674   2.830691   2.454512   1.399143
     7  C    5.530715   4.330411   2.468180   2.870950   2.490814
     8  C    4.992989   3.838418   1.432374   2.512903   2.919339
     9  C    6.043454   4.978572   2.486005   3.820348   4.391997
    10  C    7.295394   6.170499   3.689308   4.870884   5.100925
    11  C    7.700218   6.514490   4.204869   5.091385   4.913241
    12  C    6.948082   5.747662   3.755979   4.288227   3.796511
    13  N    7.002311   6.019973   5.494643   4.929214   3.548820
    14  C    6.010961   4.961810   4.293921   3.783259   2.459974
    15  H    3.580293   2.708821   1.101509   2.172243   3.453451
    16  H    3.546253   2.720099   3.453483   2.195966   1.098778
    17  H    8.223775   7.135780   4.636933   5.893816   6.196959
    18  H    8.791516   7.601701   5.308634   6.168290   5.892469
    19  H    7.569821   6.383483   4.647899   4.943186   4.161166
                    6          7          8          9         10
     6  C    0.000000
     7  C    1.462759   0.000000
     8  C    2.546289   1.480972   0.000000
     9  C    3.946274   2.644713   1.476918   0.000000
    10  C    4.279486   2.818509   2.358025   1.432486   0.000000
    11  C    3.786544   2.423155   2.774224   2.559881   1.422196
    12  C    2.526642   1.417543   2.479898   3.023795   2.462627
    13  N    2.664321   3.635483   5.044917   6.273418   6.150458
    14  C    1.463437   2.541147   3.890445   5.182794   5.220062
    15  H    3.932073   3.465648   2.170000   2.637069   4.031829
    16  H    2.171028   3.489146   4.018008   5.489768   6.178684
    17  H    5.380930   3.918574   3.392961   2.188833   1.105630
    18  H    4.672350   3.414656   3.877902   3.539124   2.203056
    19  H    2.769959   2.184326   3.486859   4.120701   3.463188
                   11         12         13         14         15
    11  C    0.000000
    12  C    1.402273   0.000000
    13  N    5.127134   3.750609   0.000000
    14  C    4.372340   2.971245   1.200894   0.000000
    15  H    4.843358   4.641418   6.595762   5.395157   0.000000
    16  H    5.901764   4.693419   3.506650   2.671509   4.356424
    17  H    2.126210   3.411371   7.153966   6.274649   4.807797
    18  H    1.103776   2.150704   5.574034   5.011420   5.930189
    19  H    2.185200   1.097042   3.085479   2.628923   5.608456
                   16         17         18         19
    16  H    0.000000
    17  H    7.278919   0.000000
    18  H    6.831245   2.438427   0.000000
    19  H    4.878100   4.307460   2.488728   0.000000
 Stoichiometry    C12H5N2(1-)
 Framework group  C1[X(C12H5N2)]
 Deg. of freedom    51
 Full point group                 C1      NOp   1
 Largest Abelian subgroup         C1      NOp   1
 Largest concise Abelian subgroup C1      NOp   1
                         Standard orientation:                         
 ---------------------------------------------------------------------
 Center     Atomic      Atomic             Coordinates (Angstroms)
 Number     Number       Type             X           Y           Z
 ---------------------------------------------------------------------
      1          7           0       -4.525262   -0.877570    0.000228
      2          6           0       -3.343312   -0.666601   -0.000025
      3          6           0       -0.959938   -1.418244   -0.000161
      4          6           0       -1.913627   -0.373297   -0.000114
      5          6           0       -1.466485    0.988882   -0.000102
      6          6           0       -0.097512    1.277871   -0.000140
      7          6           0        0.898204    0.206324   -0.000269
      8          6           0        0.456825   -1.207345   -0.000071
      9          6           0        1.322199   -2.404181    0.000088
     10          6           0        2.687691   -1.971228    0.000340
     11          6           0        3.171094   -0.633707    0.000029
     12          6           0        2.292945    0.459556   -0.000192
     13          7           0        0.655140    3.833672    0.000263
     14          6           0        0.319382    2.680671    0.000093
     15          1           0       -1.314253   -2.461212   -0.000105
     16          1           0       -2.203976    1.803389   -0.000010
     17          1           0        3.485655   -2.736519    0.000443
     18          1           0        4.254467   -0.422464   -0.000234
     19          1           0        2.664167    1.491881   -0.000394
 ---------------------------------------------------------------------
 Rotational constants (GHZ):      0.9612360      0.5897989      0.3655211
 Standard basis: STO-3G (5D, 7F)
 There are    75 symmetry adapted cartesian basis functions of A   symmetry.
 There are    75 symmetry adapted basis functions of A   symmetry.
    75 basis functions,   225 primitive gaussians,    75 cartesian basis functions
    46 alpha electrons       46 beta electrons
       nuclear repulsion energy       694.5950361960 Hartrees.
 NAtoms=   19 NActive=   19 NUniq=   19 SFac= 1.00D+00 NAtFMM=   60 NAOKFM=F Big=F
 Integral buffers will be    131072 words long.
 Raffenetti 2 integral format.
 Two-electron integral symmetry is turned on.
 One-electron integrals computed using PRISM.
 NBasis=    75 RedAO= T EigKep=  1.76D-01  NBF=    75
 NBsUse=    75 1.00D-06 EigRej= -1.00D+00 NBFU=    75
 Initial guess from the checkpoint file:  "/tmp/bnp.472628.sequoia/Gau-6294.chk"
 B after Tr=     0.000000    0.000000    0.000000
         Rot=    1.000000    0.000000    0.000000    0.000112 Ang=   0.01 deg.
 ExpMin= 1.69D-01 ExpMax= 9.91D+01 ExpMxC= 9.91D+01 IAcc=1 IRadAn=         1 AccDes= 0.00D+00
 Harris functional with IExCor=  402 and IRadAn=       1 diagonalized for initial guess.
 HarFok:  IExCor=  402 AccDes= 0.00D+00 IRadAn=         1 IDoV= 1 UseB2=F ITyADJ=14
 ICtDFT=  3500011 ScaDFX=  1.000000  1.000000  1.000000  1.000000
 FoFCou: FMM=F IPFlag=           0 FMFlag=      100000 FMFlg1=           0
         NFxFlg=           0 DoJE=T BraDBF=F KetDBF=T FulRan=T
         wScrn=  0.000000 ICntrl=     500 IOpCl=  0 I1Cent=   200000004 NGrid=           0
         NMat0=    1 NMatS0=      1 NMatT0=    0 NMatD0=    1 NMtDS0=    0 NMtDT0=    0
 Petite list used in FoFCou.
 Keep R1 ints in memory in canonical form, NReq=4993994.
 Requested convergence on RMS density matrix=1.00D-08 within 128 cycles.
 Requested convergence on MAX density matrix=1.00D-06.
 Requested convergence on             energy=1.00D-06.
 No special actions if energy rises.
 Integral accuracy reduced to 1.0D-05 until final iterations.
 Initial convergence to 1.0D-05 achieved.  Increase integral accuracy.
 SCF Done:  E(RB3LYP) =  -562.509869741     A.U. after   13 cycles
            NFock= 13  Conv=0.81D-08     -V/T= 2.0140
 Calling FoFJK, ICntrl=      2127 FMM=F ISym2X=0 I1Cent= 0 IOpClX= 0 NMat=1 NMatS=1 NMatT=0.
 ***** Axes restored to original set *****
 -------------------------------------------------------------------
 Center     Atomic                   Forces (Hartrees/Bohr)
 Number     Number              X              Y              Z
 -------------------------------------------------------------------
      1        7           0.001107581   -0.000991478   -0.000007436
      2        6          -0.000322848    0.002358275    0.000011215
      3        6          -0.000348874   -0.000211560    0.000005700
      4        6          -0.000784865   -0.003129245   -0.000009209
      5        6           0.000099804    0.001715129    0.000000420
      6        6          -0.001341912   -0.000988819   -0.000001808
      7        6          -0.000405213   -0.002350198    0.000033201
      8        6          -0.003685918    0.009474809   -0.000013322
      9        6           0.000492696   -0.004781306    0.000005028
     10        6           0.006261307    0.000519236   -0.000020111
     11        6          -0.000757833   -0.000177127   -0.000006475
     12        6           0.000604182    0.001424300   -0.000014327
     13        7          -0.000459103   -0.001363172   -0.000000423
     14        6           0.000698699    0.000971083   -0.000002685
     15        1           0.000125299    0.000278503    0.000001132
     16        1           0.000234211   -0.000436162    0.000000987
     17        1          -0.000563286   -0.000665649    0.000007431
     18        1          -0.000834650   -0.001325910    0.000010984
     19        1          -0.000119278   -0.000320711   -0.000000302
 -------------------------------------------------------------------
 Cartesian Forces:  Max     0.009474809 RMS     0.001900949

 GradGradGradGradGradGradGradGradGradGradGradGradGradGradGradGradGradGrad
 Berny optimization.
 Using GEDIIS/GDIIS optimizer.
 FormGI is forming the generalized inverse of G from B-inverse, IUseBI=4.
 Internal  Forces:  Max     0.006241736 RMS     0.001029591
 Search for a local minimum.
 Step number   3 out of a maximum of  102
 All quantities printed in internal units (Hartrees-Bohrs-Radians)
 Mixed Optimization -- RFO/linear search
 Update second derivatives using D2CorX and points    1    2    3
 DE= -3.53D-03 DEPred=-3.23D-03 R= 1.09D+00
 TightC=F SS=  1.41D+00  RLast= 1.75D-01 DXNew= 8.4853D-01 5.2519D-01
 Trust test= 1.09D+00 RLast= 1.75D-01 DXMaxT set to 5.25D-01
 ITU=  1  1  0
 Use linear search instead of GDIIS.
     Eigenvalues ---    0.01640   0.01667   0.01897   0.01906   0.01950
     Eigenvalues ---    0.01970   0.02013   0.02043   0.02081   0.02092
     Eigenvalues ---    0.02098   0.02117   0.02137   0.02179   0.02198
     Eigenvalues ---    0.02220   0.04860   0.04872   0.15790   0.16000
     Eigenvalues ---    0.16000   0.16037   0.16201   0.21423   0.22225
     Eigenvalues ---    0.23485   0.23508   0.24492   0.24998   0.25017
     Eigenvalues ---    0.25726   0.34734   0.34761   0.34841   0.35145
     Eigenvalues ---    0.35247   0.37463   0.39202   0.40384   0.40766
     Eigenvalues ---    0.40776   0.42558   0.43327   0.44890   0.45262
     Eigenvalues ---    0.45888   0.46060   0.46511   0.51732   1.27562
     Eigenvalues ---    1.34441
 RFO step:  Lambda=-5.37001085D-04 EMin= 1.64034517D-02
 Quartic linear search produced a step of -0.01230.
 Iteration  1 RMS(Cart)=  0.02701148 RMS(Int)=  0.00180017
 Iteration  2 RMS(Cart)=  0.00181295 RMS(Int)=  0.00000285
 Iteration  3 RMS(Cart)=  0.00000364 RMS(Int)=  0.00000214
 Iteration  4 RMS(Cart)=  0.00000000 RMS(Int)=  0.00000214
 Variable       Old X    -DE/DX   Delta X   Delta X   Delta X     New X
                                 (Linear)    (Quad)   (Total)
    R1        2.26886  -0.00109  -0.00016   0.00071   0.00055   2.26941
    R2        2.75798  -0.00084  -0.00011  -0.00098  -0.00109   2.75689
    R3        2.67344  -0.00088   0.00004  -0.00155  -0.00151   2.67192
    R4        2.70680   0.00003  -0.00012   0.00120   0.00108   2.70788
    R5        2.08155  -0.00031  -0.00008  -0.00026  -0.00034   2.08121
    R6        2.70928   0.00081  -0.00017   0.00353   0.00336   2.71265
    R7        2.64400  -0.00017   0.00010  -0.00083  -0.00073   2.64327
    R8        2.07639  -0.00049  -0.00005  -0.00098  -0.00103   2.07536
    R9        2.76421  -0.00024  -0.00023   0.00136   0.00113   2.76535
   R10        2.76550  -0.00025  -0.00015   0.00072   0.00057   2.76606
   R11        2.79863  -0.00296  -0.00026  -0.00435  -0.00461   2.79402
   R12        2.67877   0.00154  -0.00003   0.00338   0.00335   2.68212
   R13        2.79097   0.00624  -0.00073   0.01858   0.01785   2.80882
   R14        2.70701   0.00294  -0.00045   0.00932   0.00886   2.71587
   R15        2.68756  -0.00153  -0.00002  -0.00232  -0.00234   2.68522
   R16        2.08934   0.00019  -0.00010   0.00144   0.00133   2.09067
   R17        2.64991   0.00160   0.00000   0.00328   0.00329   2.65320
   R18        2.08583  -0.00088  -0.00006  -0.00183  -0.00189   2.08394
   R19        2.07311  -0.00034  -0.00003  -0.00065  -0.00068   2.07243
   R20        2.26936  -0.00143  -0.00015   0.00041   0.00026   2.26962
    A1        2.16279  -0.00039  -0.00033   0.00057   0.00024   2.16303
    A2        2.07434   0.00017   0.00009   0.00008   0.00017   2.07451
    A3        2.04606   0.00022   0.00024  -0.00065  -0.00041   2.04565
    A4        2.10822   0.00098  -0.00006   0.00386   0.00380   2.11202
    A5        2.09031  -0.00047   0.00000  -0.00221  -0.00221   2.08811
    A6        2.08465  -0.00051   0.00005  -0.00165  -0.00160   2.08305
    A7        2.09601  -0.00043   0.00010  -0.00174  -0.00164   2.09437
    A8        2.08860   0.00018   0.00003   0.00022   0.00026   2.08886
    A9        2.09857   0.00025  -0.00013   0.00152   0.00139   2.09995
   A10        2.11148   0.00085  -0.00010   0.00381   0.00371   2.11519
   A11        2.06771   0.00032  -0.00008   0.00177   0.00169   2.06940
   A12        2.10399  -0.00118   0.00019  -0.00558  -0.00539   2.09859
   A13        2.09023  -0.00110  -0.00008  -0.00382  -0.00390   2.08633
   A14        2.13992   0.00044   0.00008   0.00174   0.00182   2.14174
   A15        2.05303   0.00066   0.00000   0.00208   0.00208   2.05512
   A16        2.02120   0.00157   0.00036   0.00284   0.00320   2.02440
   A17        2.04905  -0.00013   0.00025  -0.00197  -0.00171   2.04734
   A18        2.21293  -0.00144  -0.00061  -0.00087  -0.00148   2.21145
   A19        1.88979   0.00095   0.00117  -0.00286  -0.00170   1.88809
   A20        2.22465  -0.00153  -0.00075  -0.00125  -0.00200   2.22264
   A21        2.07005  -0.00013   0.00006  -0.00286  -0.00279   2.06726
   A22        1.98849   0.00166   0.00069   0.00411   0.00479   1.99328
   A23        2.11807   0.00088  -0.00007   0.00390   0.00384   2.12191
   A24        2.11018  -0.00180   0.00002  -0.00989  -0.00986   2.10031
   A25        2.05494   0.00092   0.00004   0.00598   0.00602   2.06096
   A26        2.06790   0.00048   0.00026  -0.00100  -0.00074   2.06716
   A27        2.09560  -0.00019   0.00009  -0.00068  -0.00059   2.09501
   A28        2.11968  -0.00030  -0.00035   0.00168   0.00133   2.12101
   A29        3.11588   0.00227   0.00038   0.13048   0.13086   3.24674
   A30        3.14710  -0.00040  -0.00017  -0.00737  -0.00754   3.13956
   A31        3.14141   0.00001   0.00000   0.00063   0.00063   3.14205
   A32        3.14157   0.00000   0.00000   0.00001   0.00001   3.14158
    D1       -3.14144   0.00000   0.00000  -0.00006  -0.00006  -3.14150
    D2        0.00011   0.00000   0.00000  -0.00006  -0.00006   0.00004
    D3       -0.00003   0.00000   0.00000   0.00000   0.00000  -0.00003
    D4        3.14153   0.00000   0.00000   0.00000   0.00000   3.14152
    D5       -0.00026   0.00000   0.00001   0.00011   0.00012  -0.00014
    D6        3.14142   0.00000   0.00000   0.00003   0.00004   3.14146
    D7        3.14150   0.00000   0.00001   0.00006   0.00006   3.14156
    D8        0.00000   0.00000   0.00000  -0.00002  -0.00002  -0.00002
    D9        3.14155   0.00000   0.00000   0.00000   0.00001   3.14156
   D10        0.00002   0.00000   0.00000  -0.00001  -0.00001   0.00001
   D11        0.00000   0.00000   0.00000   0.00001   0.00001   0.00001
   D12       -3.14153   0.00000   0.00000  -0.00001  -0.00001  -3.14154
   D13        0.00006   0.00000   0.00000  -0.00002  -0.00002   0.00004
   D14       -3.14142   0.00000   0.00000  -0.00011  -0.00012  -3.14154
   D15       -3.14159   0.00000   0.00000   0.00000   0.00000  -3.14159
   D16        0.00011   0.00000   0.00000  -0.00010  -0.00010   0.00001
   D17       -0.00023   0.00000   0.00001   0.00008   0.00008  -0.00014
   D18       -3.14149   0.00000   0.00000  -0.00015  -0.00016   3.14153
   D19        3.14126   0.00000   0.00001   0.00017   0.00018   3.14144
[...]
 ! D14   D(4,5,6,14)          -179.9987         -DE/DX =    0.0                 !
 ! D15   D(16,5,6,7)           179.9998         -DE/DX =    0.0                 !
 ! D16   D(16,5,6,14)            0.0003         -DE/DX =    0.0                 !
 ! D17   D(5,6,7,8)             -0.0027         -DE/DX =    0.0                 !
 ! D18   D(5,6,7,12)           179.998          -DE/DX =    0.0                 !
 ! D19   D(14,6,7,8)           179.9968         -DE/DX =    0.0                 !
 ! D20   D(14,6,7,12)           -0.0026         -DE/DX =    0.0                 !
 ! D21   D(6,7,8,3)              0.0035         -DE/DX =    0.0                 !
 ! D22   D(6,7,8,9)           -179.9961         -DE/DX =    0.0                 !
 ! D23   D(12,7,8,3)          -179.9972         -DE/DX =    0.0                 !
 ! D24   D(12,7,8,9)             0.0033         -DE/DX =    0.0                 !
 ! D25   D(6,7,12,11)          179.9958         -DE/DX =    0.0                 !
 ! D26   D(6,7,12,19)           -0.0034         -DE/DX =    0.0                 !
 ! D27   D(8,7,12,11)           -0.0036         -DE/DX =    0.0                 !
 ! D28   D(8,7,12,19)          179.9973         -DE/DX =    0.0                 !
 ! D29   D(3,8,9,10)          -179.9983         -DE/DX =    0.0                 !
 ! D30   D(7,8,9,10)             0.0012         -DE/DX =    0.0                 !
 ! D31   D(8,9,10,11)           -0.0058         -DE/DX =    0.0                 !
 ! D32   D(8,9,10,17)          179.9976         -DE/DX =    0.0                 !
 ! D33   D(9,10,11,12)           0.006          -DE/DX =    0.0                 !
 ! D34   D(9,10,11,18)        -179.9933         -DE/DX =    0.0                 !
 ! D35   D(17,10,11,12)       -179.9973         -DE/DX =    0.0                 !
 ! D36   D(17,10,11,18)          0.0034         -DE/DX =    0.0                 !
 ! D37   D(10,11,12,7)          -0.0005         -DE/DX =    0.0                 !
 ! D38   D(10,11,12,19)        179.9986         -DE/DX =    0.0                 !
 ! D39   D(18,11,12,7)         179.9988         -DE/DX =    0.0                 !
 ! D40   D(18,11,12,19)         -0.0021         -DE/DX =    0.0                 !
 --------------------------------------------------------------------------------
 GradGradGradGradGradGradGradGradGradGradGradGradGradGradGradGradGradGrad

                          Input orientation:                          
 ---------------------------------------------------------------------
 Center     Atomic      Atomic             Coordinates (Angstroms)
 Number     Number       Type             X           Y           Z
 ---------------------------------------------------------------------
      1          7           0        1.079406   -0.228174   -0.023557
      2          6           0        2.278725   -0.182847   -0.024171
      3          6           0        4.511512   -1.307512   -0.025921
      4          6           0        3.735527   -0.125432   -0.025223
      5          6           0        4.396627    1.148556   -0.025544
      6          6           0        5.793537    1.212838   -0.026545
      7          6           0        6.607922   -0.003055   -0.027298
      8          6           0        5.942576   -1.319050   -0.026935
      9          6           0        6.609752   -2.650695   -0.027507
     10          6           0        8.031717   -2.441227   -0.028458
     11          6           0        8.717373   -1.198109   -0.028932
     12          6           0        8.026373    0.023376   -0.028362
     13          7           0        6.961259    3.606839   -0.027054
     14          6           0        6.435005    2.528110   -0.026818
     15          1           0        3.998995   -2.282000   -0.025648
     16          1           0        3.800022    2.070484   -0.024984
     17          1           0        8.691286   -3.328259   -0.028945
     18          1           0        9.819798   -1.171044   -0.029780
     19          1           0        8.558767    0.981861   -0.028708
 ---------------------------------------------------------------------
                    Distance matrix (angstroms):
                    1          2          3          4          5
     1  N    0.000000
     2  C    1.200176   0.000000
     3  C    3.597823   2.500042   0.000000
     4  C    2.658108   1.457933   1.414025   0.000000
     5  C    3.591565   2.501628   2.458754   1.435305   0.000000
     6  C    4.929458   3.781778   2.827677   2.454868   1.398389
     7  C    5.533099   4.332930   2.469119   2.875002   2.493199
     8  C    4.984019   3.835983   1.431111   2.509142   2.911880
     9  C    6.037661   4.984785   2.491336   3.825981   4.396844
    10  C    7.296044   6.180389   3.698265   4.880591   5.108859
    11  C    7.699308   6.518202   4.207285   5.096021   4.916878
    12  C    6.951521   5.751347   3.758393   4.293426   3.800144
    13  N    7.021648   6.023941   5.491094   4.933073   3.552534
    14  C    6.023251   4.962254   4.290901   3.785297   2.461333
    15  H    3.569622   2.713995   1.101045   2.172602   3.453523
    16  H    3.561682   2.718795   3.452112   2.196863   1.098129
    17  H    8.218959   7.142449   4.642622   5.900650   6.203708
    18  H    8.791103   7.605547   5.310041   6.173465   5.898419
    19  H    7.576613   6.387135   4.649894   4.948713   4.165479
                    6          7          8          9         10
     6  C    0.000000
     7  C    1.463428   0.000000
     8  C    2.536271   1.474628   0.000000
     9  C    3.948810   2.647640   1.489430   0.000000
    10  C    4.285049   2.823451   2.371454   1.437311   0.000000
    11  C    3.789655   2.424445   2.777432   2.559702   1.419672
    12  C    2.529897   1.418697   2.478773   3.026131   2.464609
    13  N    2.663610   3.627146   5.030120   6.267400   6.142068
    14  C    1.463360   2.537065   3.878547   5.181753   5.219560
    15  H    3.928648   3.464115   2.169051   2.636663   4.035865
    16  H    2.170176   3.490541   4.009923   5.494008   6.185693
    17  H    5.386884   3.923951   3.404752   2.189036   1.105377
    18  H    4.679068   3.417652   3.880047   3.534652   2.193308
    19  H    2.774861   2.185374   3.484057   4.122393   3.463426
                   11         12         13         14         15
    11  C    0.000000
    12  C    1.403391   0.000000
    13  N    5.115805   3.738406   0.000000
    14  C    4.369658   2.967516   1.200250   0.000000
    15  H    4.841273   4.640532   6.591922   5.391781   0.000000
    16  H    5.904579   4.696031   3.514800   2.674427   4.357029
    17  H    2.130310   3.416953   7.147628   6.275976   4.807522
    18  H    1.102758   2.154765   5.567712   5.014037   5.925874
    19  H    2.185732   1.096421   3.072873   2.627024   5.607524
                   16         17         18         19
    16  H    0.000000
    17  H    7.284979   0.000000
    18  H    6.837048   2.434567   0.000000
    19  H    4.881677   4.312157   2.495035   0.000000
 Stoichiometry    C12H5N2(1-)
 Framework group  C1[X(C12H5N2)]
 Deg. of freedom    51
 Full point group                 C1      NOp   1
 Largest Abelian subgroup         C1      NOp   1
 Largest concise Abelian subgroup C1      NOp   1
                         Standard orientation:                         
 ---------------------------------------------------------------------
 Center     Atomic      Atomic             Coordinates (Angstroms)
 Number     Number       Type             X           Y           Z
 ---------------------------------------------------------------------
      1          7           0       -4.528165   -0.876316   -0.000141
      2          6           0       -3.350429   -0.645317    0.000079
      3          6           0       -0.970092   -1.409650    0.000018
      4          6           0       -1.920211   -0.362396    0.000039
      5          6           0       -1.464946    0.998792    0.000037
      6          6           0       -0.094958    1.279197    0.000007
      7          6           0        0.898346    0.204503   -0.000040
      8          6           0        0.445408   -1.198842    0.000006
      9          6           0        1.311261   -2.410741    0.000051
     10          6           0        2.683455   -1.983021    0.000071
     11          6           0        3.167772   -0.648515   -0.000063
     12          6           0        2.295489    0.450861   -0.000115
     13          7           0        0.686877    3.825479    0.000045
     14          6           0        0.334503    2.678120    0.000034
     15          1           0       -1.325081   -2.451898    0.000043
     16          1           0       -2.197466    1.816901    0.000076
     17          1           0        3.472757   -2.756881    0.000146
     18          1           0        4.252624   -0.450601   -0.000143
     19          1           0        2.672599    1.480388   -0.000196
 ---------------------------------------------------------------------
 Rotational constants (GHZ):      0.9623430      0.5889547      0.3653563

 **********************************************************************

            Population analysis using the SCF density.

 **********************************************************************

 Orbital symmetries:
       Occupied  (A) (A) (A) (A) (A) (A) (A) (A) (A) (A) (A) (A)
                 (A) (A) (A) (A) (A) (A) (A) (A) (A) (A) (A) (A)
                 (A) (A) (A) (A) (A) (A) (A) (A) (A) (A) (A) (A)
                 (A) (A) (A) (A) (A) (A) (A) (A) (A) (A)
       Virtual   (A) (A) (A) (A) (A) (A) (A) (A) (A) (A) (A) (A)
                 (A) (A) (A) (A) (A) (A) (A) (A) (A) (A) (A) (A)
                 (A) (A) (A) (A) (A)
 The electronic state is 1-A.
 Alpha  occ. eigenvalues --  -13.99046 -13.99008  -9.90473  -9.90206  -9.89610
 Alpha  occ. eigenvalues --   -9.89559  -9.89390  -9.87703  -9.86506  -9.83905
 Alpha  occ. eigenvalues --   -9.82877  -9.82871  -9.78625  -9.66484  -0.72724
 Alpha  occ. eigenvalues --   -0.72501  -0.67283  -0.61424  -0.58689  -0.54216
 Alpha  occ. eigenvalues --   -0.50185  -0.45050  -0.43248  -0.39326  -0.34783
 Alpha  occ. eigenvalues --   -0.31202  -0.30165  -0.28977  -0.25370  -0.22935
 Alpha  occ. eigenvalues --   -0.21277  -0.19602  -0.18475  -0.17645  -0.16469
 Alpha  occ. eigenvalues --   -0.15834  -0.14687  -0.14320  -0.14223  -0.13261
 Alpha  occ. eigenvalues --   -0.10549  -0.08926  -0.06636  -0.02917   0.02431
 Alpha  occ. eigenvalues --    0.11323
 Alpha virt. eigenvalues --    0.16846   0.19438   0.25139   0.26370   0.27121
 Alpha virt. eigenvalues --    0.28523   0.33792   0.37731   0.41884   0.45745
 Alpha virt. eigenvalues --    0.46096   0.50751   0.53730   0.54170   0.57823
 Alpha virt. eigenvalues --    0.59853   0.62068   0.63548   0.66933   0.69319
 Alpha virt. eigenvalues --    0.70304   0.75618   0.78504   0.81834   0.84624
 Alpha virt. eigenvalues --    0.92223   0.93123   1.06160   1.07075
          Condensed to atoms (all electrons):
               1          2          3          4          5          6
     1  N    6.594529   0.659763  -0.000096  -0.011127  -0.000084  -0.000001
     2  C    0.659763   4.934302  -0.027968   0.423303  -0.029323   0.000831
     3  C   -0.000096  -0.027968   4.838199   0.491048  -0.028985  -0.009228
     4  C   -0.011127   0.423303   0.491048   4.787649   0.468140  -0.029132
     5  C   -0.000084  -0.029323  -0.028985   0.468140   4.826638   0.515348
     6  C   -0.000001   0.000831  -0.009228  -0.029132   0.515348   4.784423
     7  C    0.000000   0.000004  -0.033443  -0.007734  -0.027403   0.442073
     8  C   -0.000001   0.000761   0.474515  -0.024971  -0.007440  -0.021725
     9  C    0.000000  -0.000006  -0.034483   0.000747   0.000014   0.000522
    10  C    0.000000   0.000000   0.001431  -0.000015   0.000001   0.000043
    11  C    0.000000   0.000000   0.000013   0.000000  -0.000007   0.000821
    12  C    0.000000   0.000000   0.000872   0.000042   0.000676  -0.029028
    13  N    0.000000   0.000000   0.000000  -0.000001  -0.000124  -0.010699
    14  C    0.000000  -0.000006   0.000003   0.000907  -0.031823   0.416524
    15  H    0.000059  -0.003347   0.382998  -0.026386   0.001302   0.000030
    16  H    0.000058  -0.003085   0.001219  -0.024020   0.386938  -0.024570
    17  H    0.000000   0.000000  -0.000016   0.000000   0.000000   0.000001
    18  H    0.000000   0.000000   0.000001   0.000000   0.000000  -0.000016
    19  H    0.000000   0.000000  -0.000021  -0.000001   0.000016  -0.003622
               7          8          9         10         11         12
     1  N    0.000000  -0.000001   0.000000   0.000000   0.000000   0.000000
     2  C    0.000004   0.000761  -0.000006   0.000000   0.000000   0.000000
     3  C   -0.033443   0.474515  -0.034483   0.001431   0.000013   0.000872
     4  C   -0.007734  -0.024971   0.000747  -0.000015   0.000000   0.000042
     5  C   -0.027403  -0.007440   0.000014   0.000001  -0.000007   0.000676
     6  C    0.442073  -0.021725   0.000522   0.000043   0.000821  -0.029028
     7  C    4.828862   0.428417  -0.017269  -0.012107  -0.029088   0.489875
     8  C    0.428417   4.907842   0.386426  -0.029777  -0.013685  -0.030368
     9  C   -0.017269   0.386426   5.493703   0.439656  -0.017817  -0.005877
    10  C   -0.012107  -0.029777   0.439656   4.942940   0.479250  -0.029902
    11  C   -0.029088  -0.013685  -0.017817   0.479250   4.850792   0.504737
    12  C    0.489875  -0.030368  -0.005877  -0.029902   0.504737   4.869991
    13  N   -0.000023  -0.000001   0.000000   0.000000   0.000000  -0.000116
    14  C   -0.025720   0.000650  -0.000003   0.000000   0.000016  -0.004001
    15  H    0.001440  -0.025175  -0.001627   0.000036   0.000000  -0.000017
    16  H    0.001197   0.000024   0.000000   0.000000   0.000000  -0.000016
    17  H    0.000007   0.002258  -0.032212   0.380080  -0.035730   0.001474
    18  H    0.001483   0.000100   0.001086  -0.023943   0.379969  -0.028367
    19  H   -0.025646   0.001175  -0.000004   0.001238  -0.024630   0.387254
              13         14         15         16         17         18
     1  N    0.000000   0.000000   0.000059   0.000058   0.000000   0.000000
     2  C    0.000000  -0.000006  -0.003347  -0.003085   0.000000   0.000000
     3  C    0.000000   0.000003   0.382998   0.001219  -0.000016   0.000001
     4  C   -0.000001   0.000907  -0.026386  -0.024020   0.000000   0.000000
     5  C   -0.000124  -0.031823   0.001302   0.386938   0.000000   0.000000
     6  C   -0.010699   0.416524   0.000030  -0.024570   0.000001  -0.000016
     7  C   -0.000023  -0.025720   0.001440   0.001197   0.000007   0.001483
     8  C   -0.000001   0.000650  -0.025175   0.000024   0.002258   0.000100
     9  C    0.000000  -0.000003  -0.001627   0.000000  -0.032212   0.001086
    10  C    0.000000   0.000000   0.000036   0.000000   0.380080  -0.023943
    11  C    0.000000   0.000016   0.000000   0.000000  -0.035730   0.379969
    12  C   -0.000116  -0.004001  -0.000017  -0.000016   0.001474  -0.028367
    13  N    6.591795   0.659503   0.000000   0.000059   0.000000   0.000000
    14  C    0.659503   4.936592   0.000001  -0.003794   0.000000   0.000000
    15  H    0.000000   0.000001   0.591748  -0.000033  -0.000004   0.000000
    16  H    0.000059  -0.003794  -0.000033   0.595083   0.000000   0.000000
    17  H    0.000000   0.000000  -0.000004   0.000000   0.674514  -0.003843
    18  H    0.000000   0.000000   0.000000   0.000000  -0.003843   0.640285
    19  H   -0.000149   0.001426   0.000000  -0.000001  -0.000039  -0.003720
              19
     1  N    0.000000
     2  C    0.000000
     3  C   -0.000021
     4  C   -0.000001
     5  C    0.000016
     6  C   -0.003622
     7  C   -0.025646
     8  C    0.001175
     9  C   -0.000004
    10  C    0.001238
    11  C   -0.024630
    12  C    0.387254
    13  N   -0.000149
    14  C    0.001426
    15  H    0.000000
    16  H   -0.000001
    17  H   -0.000039
    18  H   -0.003720
    19  H    0.619669
 Mulliken charges:
               1
     1  N   -0.243100
     2  C    0.044771
     3  C   -0.056060
     4  C   -0.048450
     5  C   -0.073884
     6  C   -0.032596
     7  C   -0.014925
     8  C   -0.049025
     9  C   -0.212856
    10  C   -0.148930
    11  C   -0.094641
    12  C   -0.127230
    13  N   -0.240244
    14  C    0.049726
    15  H    0.078974
    16  H    0.070942
    17  H    0.013510
    18  H    0.036967
    19  H    0.047054
 Sum of Mulliken charges =  -1.00000
 Mulliken charges with hydrogens summed into heavy atoms:
               1
     1  N   -0.243100
     2  C    0.044771
     3  C    0.022914
     4  C   -0.048450
     5  C   -0.002943
     6  C   -0.032596
     7  C   -0.014925
     8  C   -0.049025
     9  C   -0.212856
    10  C   -0.135421
    11  C   -0.057674
    12  C   -0.080176
    13  N   -0.240244
    14  C    0.049726
 Electronic spatial extent (au):  <R**2>=           2799.1621
 Charge=             -1.0000 electrons
 Dipole moment (field-independent basis, Debye):
    X=             -0.1871    Y=              2.4256    Z=              0.0002  Tot=              2.4328
 Quadrupole moment (field-independent basis, Debye-Ang):
   XX=           -108.7703   YY=           -109.0415   ZZ=            -74.1551
   XY=             -0.8497   XZ=             -0.0016   YZ=             -0.0003
 Traceless Quadrupole moment (field-independent basis, Debye-Ang):
   XX=            -11.4480   YY=            -11.7192   ZZ=             23.1672
   XY=             -0.8497   XZ=             -0.0016   YZ=             -0.0003
 Octapole moment (field-independent basis, Debye-Ang**2):
  XXX=            112.0191  YYY=            -28.6999  ZZZ=             -0.0001  XYY=            -41.1163
  XXY=             42.7993  XXZ=              0.0052  XZZ=             -4.4963  YZZ=              2.9148
  YYZ=             -0.0015  XYZ=              0.0013
 Hexadecapole moment (field-independent basis, Debye-Ang**3):
 XXXX=          -2899.1895 YYYY=          -1847.5769 ZZZZ=            -58.3619 XXXY=            -99.2055
 XXXZ=             -0.0318 YYYX=              5.6945 YYYZ=             -0.0024 ZZZX=              0.0017
 ZZZY=              0.0008 XXYY=           -641.6379 XXZZ=           -377.5848 YYZZ=           -231.9641
 XXYZ=             -0.0050 YYXZ=             -0.0032 ZZXY=              6.9121
 N-N= 6.944644532294D+02 E-N=-2.710962698219D+03  KE= 5.547332190045D+02
 1\1\GINC-N040\FOpt\RB3LYP\STO-3G\C12H5N2(1-)\R2532\15-Jun-2021\0\\#N B
 3LYP/STO-3G OPT\\2Naph\\-1,1\N,1.0794060844,-0.2281738563,-0.023557109
 5\C,2.2787252486,-0.1828474065,-0.0241708374\C,4.5115118292,-1.3075123
 453,-0.0259211658\C,3.7355270089,-0.1254323607,-0.0252232871\C,4.39662
 65769,1.1485561329,-0.0255440375\C,5.7935373379,1.2128383978,-0.026544
 7585\C,6.6079224449,-0.0030553584,-0.027298344\C,5.9425760501,-1.31905
 01734,-0.0269351027\C,6.6097521867,-2.6506951836,-0.0275067167\C,8.031
 7171258,-2.441227312,-0.0284581153\C,8.7173727204,-1.1981085581,-0.028
 9320865\C,8.0263725756,0.023375619,-0.0283621545\N,6.9612594067,3.6068
 394663,-0.0270535089\C,6.4350051014,2.5281103753,-0.0268181377\H,3.998
 994856,-2.2819996422,-0.0256475329\H,3.8000218403,2.0704839191,-0.0249
 843579\H,8.6912863158,-3.3282592944,-0.0289450426\H,9.8197978053,-1.17
 10435727,-0.0297797453\H,8.5587674852,0.9818611532,-0.0287079593\\Vers
 ion=ES64L-G09RevD.01\State=1-A\HF=-562.510064\RMSD=7.403e-09\RMSF=1.55
 3e-05\Dipole=0.0754681,0.9541396,0.0001231\Quadrupole=-8.7099899,-8.51
 42549,17.2242448,-0.6322275,0.0168635,-0.0024642\PG=C01 [X(C12H5N2)]\\
 @


 MOM AND DAD WENT TO ALPHA CENTAURI AND ALL
 I GOT WAS THIS DUMB T-SHIRT.
 Job cpu time:       0 days  0 hours  4 minutes 35.4 seconds.
 File lengths (MBytes):  RWF=      5 Int=      0 D2E=      0 Chk=      2 Scr=      1
 Normal termination of Gaussian 09 at Tue Jun 15 11:13:30 2021.
