 Entering Gaussian System, Link 0=/usr/local/apps//g09/g09
 Input=5.com
 Output=5.out
 Initial command:
 /usr/local/apps//g09/l1.exe "/tmp/bnp.472673.sequoia/Gau-27128.inp" -scrdir="/tmp/bnp.472673.sequoia/"
 Entering Link 1 = /usr/local/apps//g09/l1.exe PID=     27129.
  
 Copyright (c) 1988,1990,1992,1993,1995,1998,2003,2009,2013,
            Gaussian, Inc.  All Rights Reserved.
  
 This is part of the Gaussian(R) 09 program.  It is based on
 the Gaussian(R) 03 system (copyright 2003, Gaussian, Inc.),
 the Gaussian(R) 98 system (copyright 1998, Gaussian, Inc.),
 the Gaussian(R) 94 system (copyright 1995, Gaussian, Inc.),
 the Gaussian 92(TM) system (copyright 1992, Gaussian, Inc.),
 the Gaussian 90(TM) system (copyright 1990, Gaussian, Inc.),
 the Gaussian 88(TM) system (copyright 1988, Gaussian, Inc.),
 the Gaussian 86(TM) system (copyright 1986, Carnegie Mellon
 University), and the Gaussian 82(TM) system (copyright 1983,
 Carnegie Mellon University). Gaussian is a federally registered
 trademark of Gaussian, Inc.
  
 This software contains proprietary and confidential information,
 including trade secrets, belonging to Gaussian, Inc.
  
 This software is provided under written license and may be
 used, copied, transmitted, or stored only in accord with that
 written license.
  
 The following legend is applicable only to US Government
 contracts under FAR:
  
                    RESTRICTED RIGHTS LEGEND
  
 Use, reproduction and disclosure by the US Government is
 subject to restrictions as set forth in subparagraphs (a)
 and (c) of the Commercial Computer Software - Restricted
 Rights clause in FAR 52.227-19.
  
 Gaussian, Inc.
 340 Quinnipiac St., Bldg. 40, Wallingford CT 06492
  
  
 ---------------------------------------------------------------
 Warning -- This program may not be used in any manner that
 competes with the business of Gaussian, Inc. or will provide
 assistance to any competitor of Gaussian, Inc.  The licensee
 of this program is prohibited from giving any competitor of
 Gaussian, Inc. access to this program.  By using this program,
 the user acknowledges that Gaussian, Inc. is engaged in the
 business of creating and licensing software in the field of
 computational chemistry and represents and warrants to the
 licensee that it is not a competitor of Gaussian, Inc. and that
 it will not use this program in any manner prohibited above.
 ---------------------------------------------------------------
  

 Cite this work as:
 Gaussian 09, Revision D.01,
 M. J. Frisch, G. W. Trucks, H. B. Schlegel, G. E. Scuseria, 
 M. A. Robb, J. R. Cheeseman, G. Scalmani, V. Barone, B. Mennucci, 
 G. A. Petersson, H. Nakatsuji, M. Caricato, X. Li, H. P. Hratchian, 
 A. F. Izmaylov, J. Bloino, G. Zheng, J. L. Sonnenberg, M. Hada, 
 M. Ehara, K. Toyota, R. Fukuda, J. Hasegawa, M. Ishida, T. Nakajima, 
 Y. Honda, O. Kitao, H. Nakai, T. Vreven, J. A. Montgomery, Jr., 
 J. E. Peralta, F. Ogliaro, M. Bearpark, J. J. Heyd, E. Brothers, 
 K. N. Kudin, V. N. Staroverov, T. Keith, R. Kobayashi, J. Normand, 
 K. Raghavachari, A. Rendell, J. C. Burant, S. S. Iyengar, J. Tomasi, 
 M. Cossi, N. Rega, J. M. Millam, M. Klene, J. E. Knox, J. B. Cross, 
 V. Bakken, C. Adamo, J. Jaramillo, R. Gomperts, R. E. Stratmann, 
 O. Yazyev, A. J. Austin, R. Cammi, C. Pomelli, J. W. Ochterski, 
 R. L. Martin, K. Morokuma, V. G. Zakrzewski, G. A. Voth, 
 P. Salvador, J. J. Dannenberg, S. Dapprich, A. D. Daniels, 
 O. Farkas, J. B. Foresman, J. V. Ortiz, J. Cioslowski, 
 and D. J. Fox, Gaussian, Inc., Wallingford CT, 2013.
 
 ******************************************
 Gaussian 09:  ES64L-G09RevD.01 24-Apr-2013
                15-Jun-2021 
 ******************************************
 -------------------
 #N B3LYP/STO-3G OPT
 -------------------
 1/14=-1,18=20,19=15,26=3,38=1/1,3;
 2/9=110,12=2,17=6,18=5,40=1/2;
 3/6=3,11=2,16=1,25=1,30=1,71=1,74=-5/1,2,3;
 4//1;
 5/5=2,38=5/2;
 6/7=2,8=2,9=2,10=2,28=1/1;
 7//1,2,3,16;
 1/14=-1,18=20,19=15,26=3/3(2);
 2/9=110/2;
 99//99;
 2/9=110/2;
 3/6=3,11=2,16=1,25=1,30=1,71=1,74=-5/1,2,3;
 4/5=5,16=3,69=1/1;
 5/5=2,38=5/2;
 7//1,2,3,16;
 1/14=-1,18=20,19=15,26=3/3(-5);
 2/9=110/2;
 6/7=2,8=2,9=2,10=2,19=2,28=1/1;
 99/9=1/99;
 -----
 1Naph
 -----
 Symbolic Z-matrix:
 Charge = -1 Multiplicity = 1
 N                     1.16537  -0.15645   0.00253 
 C                     2.32451  -0.12841   0.0021 
 C                     3.76307  -0.10787   0.00147 
 C                     4.43747   1.12828   0.00214 
 C                     5.83572   1.15876   0.00116 
 C                     6.56363  -0.02893  -0.00018 
 C                     5.90997  -1.26189  -0.00036 
 C                     4.49527  -1.33246   0.00035 
 C                     3.91371  -2.62751   0.00012 
 C                     4.70038  -3.78506  -0.00028 
 C                     6.0855   -3.68317  -0.00078 
 C                     6.6796   -2.42745  -0.00099 
 N                     3.20507   3.41291   0.00574 
 C                     3.73634   2.38253   0.00406 
 H                     6.37058   2.10818   0.00155 
 H                     7.65201   0.01613  -0.00088 
 H                     2.83142  -2.75646   0.00052 
 H                     4.22895  -4.76559  -0.00002 
 H                     6.70892  -4.5727   -0.00083 
 

 GradGradGradGradGradGradGradGradGradGradGradGradGradGradGradGradGradGrad
 Berny optimization.
 Initialization pass.
                           ----------------------------
                           !    Initial Parameters    !
                           ! (Angstroms and Degrees)  !
 --------------------------                            --------------------------
 ! Name  Definition              Value          Derivative Info.                !
 --------------------------------------------------------------------------------
 ! R1    R(1,2)                  1.1595         estimate D2E/DX2                !
 ! R2    R(2,3)                  1.4387         estimate D2E/DX2                !
 ! R3    R(3,4)                  1.4081         estimate D2E/DX2                !
 ! R4    R(3,8)                  1.4268         estimate D2E/DX2                !
 ! R5    R(4,5)                  1.3986         estimate D2E/DX2                !
 ! R6    R(4,14)                 1.4369         estimate D2E/DX2                !
 ! R7    R(5,6)                  1.393          estimate D2E/DX2                !
 ! R8    R(5,15)                 1.0897         estimate D2E/DX2                !
 ! R9    R(6,7)                  1.3955         estimate D2E/DX2                !
 ! R10   R(6,16)                 1.0893         estimate D2E/DX2                !
 ! R11   R(7,8)                  1.4165         estimate D2E/DX2                !
 ! R12   R(7,12)                 1.3967         estimate D2E/DX2                !
 ! R13   R(8,9)                  1.4196         estimate D2E/DX2                !
 ! R14   R(9,10)                 1.3996         estimate D2E/DX2                !
 ! R15   R(9,17)                 1.0899         estimate D2E/DX2                !
 ! R16   R(10,11)                1.3889         estimate D2E/DX2                !
 ! R17   R(10,18)                1.088          estimate D2E/DX2                !
 ! R18   R(11,12)                1.3892         estimate D2E/DX2                !
 ! R19   R(11,19)                1.0862         estimate D2E/DX2                !
 ! R20   R(13,14)                1.1593         estimate D2E/DX2                !
 ! A1    A(2,3,4)              119.4333         estimate D2E/DX2                !
 ! A2    A(2,3,8)              120.0578         estimate D2E/DX2                !
 ! A3    A(4,3,8)              120.5089         estimate D2E/DX2                !
 ! A4    A(3,4,5)              119.8641         estimate D2E/DX2                !
 ! A5    A(3,4,14)             122.1793         estimate D2E/DX2                !
 ! A6    A(5,4,14)             117.9566         estimate D2E/DX2                !
 ! A7    A(4,5,6)              120.2545         estimate D2E/DX2                !
 ! A8    A(4,5,15)             120.6437         estimate D2E/DX2                !
 ! A9    A(6,5,15)             119.1018         estimate D2E/DX2                !
 ! A10   A(5,6,7)              120.5662         estimate D2E/DX2                !
 ! A11   A(5,6,16)             119.1325         estimate D2E/DX2                !
 ! A12   A(7,6,16)             120.3013         estimate D2E/DX2                !
 ! A13   A(6,7,8)              120.7863         estimate D2E/DX2                !
 ! A14   A(6,7,12)             118.6323         estimate D2E/DX2                !
 ! A15   A(8,7,12)             120.5814         estimate D2E/DX2                !
 ! A16   A(3,8,7)              118.0201         estimate D2E/DX2                !
 ! A17   A(3,8,9)              124.9411         estimate D2E/DX2                !
 ! A18   A(7,8,9)              117.0388         estimate D2E/DX2                !
 ! A19   A(8,9,10)             121.6169         estimate D2E/DX2                !
 ! A20   A(8,9,17)             120.9776         estimate D2E/DX2                !
 ! A21   A(10,9,17)            117.4055         estimate D2E/DX2                !
 ! A22   A(9,10,11)            119.9929         estimate D2E/DX2                !
 ! A23   A(9,10,18)            120.1222         estimate D2E/DX2                !
 ! A24   A(11,10,18)           119.885          estimate D2E/DX2                !
 ! A25   A(10,11,12)           119.5267         estimate D2E/DX2                !
 ! A26   A(10,11,19)           120.8173         estimate D2E/DX2                !
 ! A27   A(12,11,19)           119.6561         estimate D2E/DX2                !
 ! A28   A(7,12,11)            121.2433         estimate D2E/DX2                !
 ! A29   L(1,2,3,13,-1)        180.5677         estimate D2E/DX2                !
 ! A30   L(4,14,13,1,-1)       181.9294         estimate D2E/DX2                !
 ! A31   L(1,2,3,13,-2)        180.0033         estimate D2E/DX2                !
 ! A32   L(4,14,13,1,-2)       179.9933         estimate D2E/DX2                !
 ! D1    D(2,3,4,5)           -179.9822         estimate D2E/DX2                !
 ! D2    D(2,3,4,14)             0.0291         estimate D2E/DX2                !
 ! D3    D(8,3,4,5)              0.0258         estimate D2E/DX2                !
 ! D4    D(8,3,4,14)          -179.9628         estimate D2E/DX2                !
 ! D5    D(2,3,8,7)            179.9944         estimate D2E/DX2                !
 ! D6    D(2,3,8,9)             -0.0171         estimate D2E/DX2                !
 ! D7    D(4,3,8,7)             -0.0137         estimate D2E/DX2                !
 ! D8    D(4,3,8,9)            179.9748         estimate D2E/DX2                !
 ! D9    D(3,4,5,6)             -0.0141         estimate D2E/DX2                !
 ! D10   D(3,4,5,15)           179.9931         estimate D2E/DX2                !
 ! D11   D(14,4,5,6)           179.975          estimate D2E/DX2                !
 ! D12   D(14,4,5,15)           -0.0177         estimate D2E/DX2                !
 ! D13   D(4,5,6,7)             -0.0096         estimate D2E/DX2                !
 ! D14   D(4,5,6,16)          -179.9971         estimate D2E/DX2                !
 ! D15   D(15,5,6,7)           179.9832         estimate D2E/DX2                !
 ! D16   D(15,5,6,16)           -0.0042         estimate D2E/DX2                !
 ! D17   D(5,6,7,8)              0.0218         estimate D2E/DX2                !
 ! D18   D(5,6,7,12)          -179.9658         estimate D2E/DX2                !
 ! D19   D(16,6,7,8)          -179.9909         estimate D2E/DX2                !
 ! D20   D(16,6,7,12)            0.0216         estimate D2E/DX2                !
 ! D21   D(6,7,8,3)             -0.01           estimate D2E/DX2                !
 ! D22   D(6,7,8,9)           -179.9994         estimate D2E/DX2                !
 ! D23   D(12,7,8,3)           179.9774         estimate D2E/DX2                !
 ! D24   D(12,7,8,9)            -0.012          estimate D2E/DX2                !
 ! D25   D(6,7,12,11)          179.9799         estimate D2E/DX2                !
 ! D26   D(8,7,12,11)           -0.0077         estimate D2E/DX2                !
 ! D27   D(3,8,9,10)          -179.9651         estimate D2E/DX2                !
 ! D28   D(3,8,9,17)             0.0183         estimate D2E/DX2                !
 ! D29   D(7,8,9,10)             0.0235         estimate D2E/DX2                !
 ! D30   D(7,8,9,17)          -179.9931         estimate D2E/DX2                !
 ! D31   D(8,9,10,11)           -0.0152         estimate D2E/DX2                !
 ! D32   D(8,9,10,18)          179.9738         estimate D2E/DX2                !
 ! D33   D(17,9,10,11)        -179.9992         estimate D2E/DX2                !
 ! D34   D(17,9,10,18)          -0.0101         estimate D2E/DX2                !
 ! D35   D(9,10,11,12)          -0.0053         estimate D2E/DX2                !
 ! D36   D(9,10,11,19)         179.9838         estimate D2E/DX2                !
 ! D37   D(18,10,11,12)       -179.9943         estimate D2E/DX2                !
 ! D38   D(18,10,11,19)         -0.0053         estimate D2E/DX2                !
 ! D39   D(10,11,12,7)           0.0167         estimate D2E/DX2                !
 ! D40   D(19,11,12,7)        -179.9725         estimate D2E/DX2                !
 --------------------------------------------------------------------------------
 Trust Radius=3.00D-01 FncErr=1.00D-07 GrdErr=1.00D-06
 Number of steps in this run=    102 maximum allowed number of steps=    114.
 GradGradGradGradGradGradGradGradGradGradGradGradGradGradGradGradGradGrad

                          Input orientation:                          
 ---------------------------------------------------------------------
 Center     Atomic      Atomic             Coordinates (Angstroms)
 Number     Number       Type             X           Y           Z
 ---------------------------------------------------------------------
      1          7           0        1.165370   -0.156450    0.002530
      2          6           0        2.324510   -0.128410    0.002100
      3          6           0        3.763070   -0.107870    0.001470
      4          6           0        4.437470    1.128280    0.002140
      5          6           0        5.835720    1.158760    0.001160
      6          6           0        6.563630   -0.028930   -0.000180
      7          6           0        5.909970   -1.261890   -0.000360
      8          6           0        4.495270   -1.332460    0.000350
      9          6           0        3.913710   -2.627510    0.000120
     10          6           0        4.700380   -3.785060   -0.000280
     11          6           0        6.085500   -3.683170   -0.000780
     12          6           0        6.679600   -2.427450   -0.000990
     13          7           0        3.205070    3.412910    0.005740
     14          6           0        3.736340    2.382530    0.004060
     15          1           0        6.370580    2.108180    0.001550
     16          1           0        7.652010    0.016130   -0.000880
     17          1           0        2.831420   -2.756460    0.000520
     18          1           0        4.228950   -4.765590   -0.000020
     19          1           0        6.708920   -4.572700   -0.000830
 ---------------------------------------------------------------------
                    Distance matrix (angstroms):
                    1          2          3          4          5
     1  N    0.000000
     2  C    1.159479   0.000000
     3  C    2.598154   1.438707   0.000000
     4  C    3.515277   2.458428   1.408149   0.000000
     5  C    4.852005   3.739706   2.429039   1.398583   0.000000
     6  C    5.399767   4.240288   2.801673   2.420681   1.393005
     7  C    4.871677   3.760360   2.437405   2.807343   2.421789
     8  C    3.531464   2.482325   1.426793   2.461419   2.828955
     9  C    3.695878   2.961598   2.524139   3.792135   4.246171
    10  C    5.065877   4.360717   3.794770   4.920370   5.072510
    11  C    6.053548   5.175072   4.263386   5.085869   4.848369
    12  C    5.963572   4.924673   3.726473   4.203614   3.684161
    13  N    4.111048   3.649157   3.564726   2.595835   3.464323
    14  C    3.613351   2.880640   2.490545   1.436917   2.430024
    15  H    5.676510   4.623096   3.421986   2.167284   1.089713
    16  H    6.488936   5.329461   3.890917   3.401493   2.145814
    17  H    3.088006   2.676492   2.807668   4.203642   4.935055
    18  H    5.534411   5.013017   4.680962   5.897558   6.138374
    19  H    7.087610   6.242978   5.349088   6.136829   5.797596
                    6          7          8          9         10
     6  C    0.000000
     7  C    1.395515   0.000000
     8  C    2.444853   1.416459   0.000000
     9  C    3.711428   2.418672   1.419636   0.000000
    10  C    4.192876   2.798123   2.461162   1.399561   0.000000
    11  C    3.685387   2.427634   2.838075   2.414765   1.388863
    12  C    2.401322   1.396732   2.443420   2.773116   2.400087
    13  N    4.808973   5.400951   4.917640   6.081848   7.351650
    14  C    3.716009   4.243405   3.791720   5.013180   6.242480
    15  H    2.145812   3.401402   3.918519   5.335070   6.125345
    16  H    1.089313   2.160564   3.432740   4.578616   4.812605
    17  H    4.622641   3.422165   2.190017   1.089945   2.133314
    18  H    5.280784   3.886096   3.443444   2.161195   1.087973
    19  H    4.546092   3.405846   3.924207   3.405432   2.157455
                   11         12         13         14         15
    11  C    0.000000
    12  C    1.389168   0.000000
    13  N    7.658412   6.795749   0.000000
    14  C    6.504713   5.639035   1.159281   0.000000
    15  H    5.798363   4.546146   3.423856   2.648489   0.000000
    16  H    4.017309   2.629955   5.595841   4.575188   2.453312
    17  H    3.383464   3.862219   6.180677   5.218056   6.015844
    18  H    2.149049   3.387120   8.242343   7.165075   7.199673
    19  H    1.086239   2.145450   8.720492   7.563827   6.689442
                   16         17         18         19
    16  H    0.000000
    17  H    5.561056   0.000000
    18  H    5.880662   2.447385   0.000000
    19  H    4.684739   4.281791   2.487460   0.000000
 Stoichiometry    C12H5N2(1-)
 Framework group  C1[X(C12H5N2)]
 Deg. of freedom    51
 Full point group                 C1      NOp   1
 Largest Abelian subgroup         C1      NOp   1
 Largest concise Abelian subgroup C1      NOp   1
                         Standard orientation:                         
 ---------------------------------------------------------------------
 Center     Atomic      Atomic             Coordinates (Angstroms)
 Number     Number       Type             X           Y           Z
 ---------------------------------------------------------------------
      1          7           0        1.723490    2.878209   -0.000613
      2          6           0        1.279303    1.807187   -0.000482
      3          6           0        0.715005    0.483765   -0.000405
      4          6           0        1.571717   -0.633789   -0.000178
      5          6           0        1.032845   -1.924390   -0.000479
      6          6           0       -0.347948   -2.108435   -0.000705
      7          6           0       -1.210150   -1.011134   -0.000434
      8          6           0       -0.701259    0.310754   -0.000387
      9          6           0       -1.649446    1.367309   -0.000090
     10          6           0       -3.026501    1.117331    0.000633
     11          6           0       -3.494771   -0.190210    0.000762
     12          6           0       -2.587622   -1.242288    0.000056
     13          7           0        4.159787   -0.433161    0.001364
     14          6           0        3.002504   -0.501203    0.000600
     15          1           0        1.683993   -2.798163   -0.000420
     16          1           0       -0.747896   -3.121669   -0.000890
     17          1           0       -1.328657    2.408978   -0.000150
     18          1           0       -3.731799    1.945727    0.001277
     19          1           0       -4.560640   -0.399583    0.001585
 ---------------------------------------------------------------------
 Rotational constants (GHZ):      1.3909253      0.5648571      0.4017186
 Standard basis: STO-3G (5D, 7F)
 There are    75 symmetry adapted cartesian basis functions of A   symmetry.
 There are    75 symmetry adapted basis functions of A   symmetry.
    75 basis functions,   225 primitive gaussians,    75 cartesian basis functions
    46 alpha electrons       46 beta electrons
       nuclear repulsion energy       716.2372285578 Hartrees.
 NAtoms=   19 NActive=   19 NUniq=   19 SFac= 1.00D+00 NAtFMM=   60 NAOKFM=F Big=F
 Integral buffers will be    131072 words long.
 Raffenetti 2 integral format.
 Two-electron integral symmetry is turned on.
 One-electron integrals computed using PRISM.
 NBasis=    75 RedAO= T EigKep=  1.54D-01  NBF=    75
 NBsUse=    75 1.00D-06 EigRej= -1.00D+00 NBFU=    75
 ExpMin= 1.69D-01 ExpMax= 9.91D+01 ExpMxC= 9.91D+01 IAcc=1 IRadAn=         1 AccDes= 0.00D+00
 Harris functional with IExCor=  402 and IRadAn=       1 diagonalized for initial guess.
 HarFok:  IExCor=  402 AccDes= 0.00D+00 IRadAn=         1 IDoV= 1 UseB2=F ITyADJ=14
 ICtDFT=  3500011 ScaDFX=  1.000000  1.000000  1.000000  1.000000
 FoFCou: FMM=F IPFlag=           0 FMFlag=      100000 FMFlg1=           0
         NFxFlg=           0 DoJE=T BraDBF=F KetDBF=T FulRan=T
         wScrn=  0.000000 ICntrl=     500 IOpCl=  0 I1Cent=   200000004 NGrid=           0
         NMat0=    1 NMatS0=      1 NMatT0=    0 NMatD0=    1 NMtDS0=    0 NMtDT0=    0
 Petite list used in FoFCou.
 Keep R1 ints in memory in canonical form, NReq=4993994.
 Requested convergence on RMS density matrix=1.00D-08 within 128 cycles.
 Requested convergence on MAX density matrix=1.00D-06.
 Requested convergence on             energy=1.00D-06.
 No special actions if energy rises.
 Integral accuracy reduced to 1.0D-05 until final iterations.
 EnCoef did     3 forward-backward iterations
 Rare condition: small coef for last iteration:  0.000D+00
 Problem detected with inexpensive integrals.
 Switching to full accuracy and repeating last cycle.
 EnCoef did     6 forward-backward iterations
 EnCoef did     2 forward-backward iterations
 EnCoef did     3 forward-backward iterations
 SCF Done:  E(RB3LYP) =  -562.472362559     A.U. after   31 cycles
            NFock= 31  Conv=0.53D-08     -V/T= 2.0129

 **********************************************************************

            Population analysis using the SCF density.

 **********************************************************************

 Orbital symmetries:
       Occupied  (A) (A) (A) (A) (A) (A) (A) (A) (A) (A) (A) (A)
                 (A) (A) (A) (A) (A) (A) (A) (A) (A) (A) (A) (A)
                 (A) (A) (A) (A) (A) (A) (A) (A) (A) (A) (A) (A)
                 (A) (A) (A) (A) (A) (A) (A) (A) (A) (A)
       Virtual   (A) (A) (A) (A) (A) (A) (A) (A) (A) (A) (A) (A)
                 (A) (A) (A) (A) (A) (A) (A) (A) (A) (A) (A) (A)
                 (A) (A) (A) (A) (A)
 The electronic state is 1-A.
 Alpha  occ. eigenvalues --  -13.99136 -13.97880  -9.90708  -9.89783  -9.89673
 Alpha  occ. eigenvalues --   -9.88598  -9.86774  -9.86442  -9.85807  -9.83832
 Alpha  occ. eigenvalues --   -9.83220  -9.82592  -9.79711  -9.67001  -0.74393
 Alpha  occ. eigenvalues --   -0.73132  -0.68138  -0.62299  -0.58564  -0.55607
 Alpha  occ. eigenvalues --   -0.50133  -0.46605  -0.42507  -0.40091  -0.34154
 Alpha  occ. eigenvalues --   -0.33262  -0.30563  -0.27504  -0.25482  -0.22806
 Alpha  occ. eigenvalues --   -0.22309  -0.21209  -0.19281  -0.17259  -0.16346
 Alpha  occ. eigenvalues --   -0.15453  -0.15073  -0.14848  -0.14102  -0.13347
 Alpha  occ. eigenvalues --   -0.11213  -0.11134  -0.06418  -0.03930   0.02226
 Alpha  occ. eigenvalues --    0.13206
 Alpha virt. eigenvalues --    0.16115   0.21887   0.27371   0.28486   0.28708
 Alpha virt. eigenvalues --    0.30829   0.33514   0.40485   0.43976   0.48639
 Alpha virt. eigenvalues --    0.51017   0.51895   0.54445   0.58159   0.61142
 Alpha virt. eigenvalues --    0.63082   0.65001   0.65454   0.71454   0.72645
 Alpha virt. eigenvalues --    0.74496   0.77698   0.82964   0.86948   0.87962
 Alpha virt. eigenvalues --    0.99588   0.99848   1.12534   1.17097
          Condensed to atoms (all electrons):
               1          2          3          4          5          6
     1  N    6.581612   0.683889  -0.011313  -0.000119  -0.000001   0.000000
     2  C    0.683889   4.895154   0.429600  -0.032838   0.000971   0.000013
     3  C   -0.011313   0.429600   4.784694   0.489501  -0.030887  -0.010222
     4  C   -0.000119  -0.032838   0.489501   4.760211   0.484489  -0.029977
     5  C   -0.000001   0.000971  -0.030887   0.484489   4.838987   0.513329
     6  C    0.000000   0.000013  -0.010222  -0.029977   0.513329   4.835949
     7  C   -0.000002   0.000933  -0.027944  -0.010262  -0.030593   0.477506
     8  C   -0.000094  -0.028698   0.461087  -0.028125  -0.008874  -0.034612
     9  C   -0.000113  -0.004112  -0.028110   0.000710   0.000043   0.000984
    10  C    0.000000   0.000015   0.000780  -0.000007   0.000001  -0.000007
    11  C    0.000000   0.000000   0.000037   0.000001  -0.000017   0.001399
    12  C    0.000000  -0.000008   0.001067   0.000039   0.001140  -0.043059
    13  N   -0.000012  -0.000026  -0.000066  -0.011418  -0.000247  -0.000001
    14  C   -0.000029  -0.003123  -0.028931   0.431043  -0.033026   0.001042
    15  H    0.000000  -0.000021   0.001349  -0.025684   0.390253  -0.026089
    16  H    0.000000   0.000001   0.000026   0.001486  -0.027290   0.389662
    17  H   -0.000136   0.001172  -0.003284   0.000010  -0.000001  -0.000023
    18  H    0.000000   0.000000  -0.000013   0.000000   0.000000   0.000002
    19  H    0.000000   0.000000   0.000001   0.000000   0.000000  -0.000008
               7          8          9         10         11         12
     1  N   -0.000002  -0.000094  -0.000113   0.000000   0.000000   0.000000
     2  C    0.000933  -0.028698  -0.004112   0.000015   0.000000  -0.000008
     3  C   -0.027944   0.461087  -0.028110   0.000780   0.000037   0.001067
     4  C   -0.010262  -0.028125   0.000710  -0.000007   0.000001   0.000039
     5  C   -0.030593  -0.008874   0.000043   0.000001  -0.000017   0.001140
     6  C    0.477506  -0.034612   0.000984  -0.000007   0.001399  -0.043059
     7  C    4.827093   0.448556  -0.033542  -0.012184  -0.029632   0.459298
     8  C    0.448556   4.801488   0.489120  -0.025548  -0.011045  -0.029033
     9  C   -0.033542   0.489120   4.864900   0.515312  -0.033086  -0.013730
    10  C   -0.012184  -0.025548   0.515312   4.842837   0.483332  -0.029144
    11  C   -0.029632  -0.011045  -0.033086   0.483332   4.880994   0.492501
    12  C    0.459298  -0.029033  -0.013730  -0.029144   0.492501   5.390890
    13  N    0.000000  -0.000001   0.000000   0.000000   0.000000   0.000000
    14  C    0.000019   0.000843  -0.000006   0.000000   0.000000   0.000000
    15  H    0.001512   0.000018   0.000001   0.000000   0.000000  -0.000027
    16  H   -0.024570   0.001515  -0.000019   0.000000   0.000044  -0.002660
    17  H    0.001361  -0.025205   0.388714  -0.028149   0.001502   0.000060
    18  H    0.000079   0.001339  -0.026853   0.382680  -0.026424   0.001713
    19  H    0.001989  -0.000030   0.001446  -0.032499   0.387258  -0.034594
              13         14         15         16         17         18
     1  N   -0.000012  -0.000029   0.000000   0.000000  -0.000136   0.000000
     2  C   -0.000026  -0.003123  -0.000021   0.000001   0.001172   0.000000
     3  C   -0.000066  -0.028931   0.001349   0.000026  -0.003284  -0.000013
     4  C   -0.011418   0.431043  -0.025684   0.001486   0.000010   0.000000
     5  C   -0.000247  -0.033026   0.390253  -0.027290  -0.000001   0.000000
     6  C   -0.000001   0.001042  -0.026089   0.389662  -0.000023   0.000002
     7  C    0.000000   0.000019   0.001512  -0.024570   0.001361   0.000079
     8  C   -0.000001   0.000843   0.000018   0.001515  -0.025205   0.001339
     9  C    0.000000  -0.000006   0.000001  -0.000019   0.388714  -0.026853
    10  C    0.000000   0.000000   0.000000   0.000000  -0.028149   0.382680
    11  C    0.000000   0.000000   0.000000   0.000044   0.001502  -0.026424
    12  C    0.000000   0.000000  -0.000027  -0.002660   0.000060   0.001713
    13  N    6.574281   0.686271   0.000047   0.000000   0.000000   0.000000
    14  C    0.686271   4.890652  -0.003981  -0.000021   0.000000   0.000000
    15  H    0.000047  -0.003981   0.607693  -0.004106   0.000000   0.000000
    16  H    0.000000  -0.000021  -0.004106   0.597838   0.000000   0.000000
    17  H    0.000000   0.000000   0.000000   0.000000   0.620372  -0.004206
    18  H    0.000000   0.000000   0.000000   0.000000  -0.004206   0.635106
    19  H    0.000000   0.000000   0.000000  -0.000005  -0.000042  -0.003104
              19
     1  N    0.000000
     2  C    0.000000
     3  C    0.000001
     4  C    0.000000
     5  C    0.000000
     6  C   -0.000008
     7  C    0.001989
     8  C   -0.000030
     9  C    0.001446
    10  C   -0.032499
    11  C    0.387258
    12  C   -0.034594
    13  N    0.000000
    14  C    0.000000
    15  H    0.000000
    16  H   -0.000005
    17  H   -0.000042
    18  H   -0.003104
    19  H    0.654760
 Mulliken charges:
               1
     1  N   -0.253683
     2  C    0.057079
     3  C   -0.027373
     4  C   -0.029063
     5  C   -0.098276
     6  C   -0.075887
     7  C   -0.049617
     8  C   -0.012700
     9  C   -0.121658
    10  C   -0.097421
    11  C   -0.146864
    12  C   -0.194453
    13  N   -0.248828
    14  C    0.059248
    15  H    0.059035
    16  H    0.068099
    17  H    0.047855
    18  H    0.039681
    19  H    0.024826
 Sum of Mulliken charges =  -1.00000
 Mulliken charges with hydrogens summed into heavy atoms:
               1
     1  N   -0.253683
     2  C    0.057079
     3  C   -0.027373
     4  C   -0.029063
     5  C   -0.039240
     6  C   -0.007788
     7  C   -0.049617
     8  C   -0.012700
     9  C   -0.073803
    10  C   -0.057740
    11  C   -0.122038
    12  C   -0.194453
    13  N   -0.248828
    14  C    0.059248
 Electronic spatial extent (au):  <R**2>=           2576.5491
 Charge=             -1.0000 electrons
 Dipole moment (field-independent basis, Debye):
    X=             -0.2168    Y=             -0.8556    Z=              0.2165  Tot=              0.9088
 Quadrupole moment (field-independent basis, Debye-Ang):
   XX=           -119.3381   YY=            -89.8196   ZZ=            -74.0727
   XY=            -12.0197   XZ=             -0.4901   YZ=             -0.4046
 Traceless Quadrupole moment (field-independent basis, Debye-Ang):
   XX=            -24.9280   YY=              4.5905   ZZ=             20.3375
   XY=            -12.0197   XZ=             -0.4901   YZ=             -0.4046
 Octapole moment (field-independent basis, Debye-Ang**2):
  XXX=            -51.7945  YYY=            -32.7302  ZZZ=              0.1340  XYY=             -5.4458
  XXY=             16.8951  XXZ=              1.1483  XZZ=              6.5169  YZZ=              2.2684
  YYZ=              0.8333  XYZ=              1.0254
 Hexadecapole moment (field-independent basis, Debye-Ang**3):
 XXXX=          -2954.8780 YYYY=          -1097.7270 ZZZZ=            -58.2646 XXXY=            -42.9016
 XXXZ=             -4.1491 YYYX=           -111.3802 YYYZ=             -1.1411 ZZZX=             -0.2887
 ZZZY=             -0.2404 XXYY=           -621.6361 XXZZ=           -390.8795 YYZZ=           -174.8484
 XXYZ=             -2.9260 YYXZ=             -1.8567 ZZXY=              3.7458
 N-N= 7.162372285578D+02 E-N=-2.754734872121D+03  KE= 5.552931857214D+02
 Calling FoFJK, ICntrl=      2127 FMM=F ISym2X=0 I1Cent= 0 IOpClX= 0 NMat=1 NMatS=1 NMatT=0.
 ***** Axes restored to original set *****
 -------------------------------------------------------------------
 Center     Atomic                   Forces (Hartrees/Bohr)
 Number     Number              X              Y              Z
 -------------------------------------------------------------------
      1        7          -0.111442132   -0.003330206   -0.002035926
      2        6           0.096524137    0.003895213    0.006827130
      3        6          -0.020008712   -0.000811375   -0.001092282
      4        6          -0.008970081    0.007677294   -0.001313572
      5        6           0.036647977   -0.003014404    0.001954591
      6        6           0.001533989    0.046841276    0.001225660
      7        6           0.002057166   -0.029957667    0.003981723
      8        6          -0.023406556   -0.006360594   -0.010446734
      9        6          -0.013884074   -0.014250661   -0.001092135
     10        6          -0.020098514    0.000672606    0.007266320
     11        6           0.008157552    0.020405441    0.010892546
     12        6           0.072402907   -0.022942673   -0.009742185
     13        7          -0.050242342    0.097757647    0.000338738
     14        6           0.038566327   -0.084031373   -0.000508109
     15        1          -0.000820187    0.007380610    0.000008591
     16        1           0.006843996   -0.003054204    0.001028175
     17        1          -0.006400972    0.005353918   -0.000944661
     18        1          -0.010572483   -0.007964626   -0.002889282
     19        1           0.003112002   -0.014266219   -0.003458588
 -------------------------------------------------------------------
 Cartesian Forces:  Max     0.111442132 RMS     0.031362711

 GradGradGradGradGradGradGradGradGradGradGradGradGradGradGradGradGradGrad
 Berny optimization.
 FormGI is forming the generalized inverse of G from B-inverse, IUseBI=4.
 Internal  Forces:  Max     0.111489057 RMS     0.021248946
 Search for a local minimum.
 Step number   1 out of a maximum of  102
 All quantities printed in internal units (Hartrees-Bohrs-Radians)
 Mixed Optimization -- RFO/linear search
 Second derivative matrix not updated -- first step.
 ITU=  0
     Eigenvalues ---    0.01577   0.01577   0.01825   0.01847   0.01877
     Eigenvalues ---    0.01940   0.01981   0.02035   0.02040   0.02090
     Eigenvalues ---    0.02138   0.02142   0.02160   0.02165   0.02201
     Eigenvalues ---    0.02235   0.04876   0.04876   0.16000   0.16000
     Eigenvalues ---    0.16000   0.16000   0.16000   0.22079   0.22516
     Eigenvalues ---    0.23388   0.24484   0.24920   0.25000   0.25000
     Eigenvalues ---    0.25000   0.34819   0.34846   0.34892   0.35048
     Eigenvalues ---    0.35251   0.38207   0.39763   0.39874   0.40011
     Eigenvalues ---    0.40945   0.42813   0.43808   0.44911   0.45507
     Eigenvalues ---    0.45944   0.46097   0.46437   0.47270   1.28135
     Eigenvalues ---    1.28265
 RFO step:  Lambda=-5.87190318D-02 EMin= 1.57673940D-02
 Linear search not attempted -- first point.
 Maximum step size (   0.300) exceeded in Quadratic search.
    -- Step size scaled by   0.899
 Iteration  1 RMS(Cart)=  0.05280240 RMS(Int)=  0.00143318
 Iteration  2 RMS(Cart)=  0.00213323 RMS(Int)=  0.00044107
 Iteration  3 RMS(Cart)=  0.00000206 RMS(Int)=  0.00044107
 Iteration  4 RMS(Cart)=  0.00000000 RMS(Int)=  0.00044107
 Variable       Old X    -DE/DX   Delta X   Delta X   Delta X     New X
                                 (Linear)    (Quad)   (Total)
    R1        2.19110   0.11149   0.00000   0.07480   0.07480   2.26589
    R2        2.71876   0.01491   0.00000   0.02937   0.02937   2.74814
    R3        2.66102   0.02345   0.00000   0.04082   0.04063   2.70164
    R4        2.69625   0.02621   0.00000   0.05045   0.05045   2.74669
    R5        2.64294   0.03528   0.00000   0.05953   0.05935   2.70228
    R6        2.71538   0.01768   0.00000   0.03464   0.03464   2.75002
    R7        2.63240   0.00579   0.00000   0.00927   0.00927   2.64167
    R8        2.05926   0.00603   0.00000   0.01331   0.01331   2.07257
    R9        2.63714   0.04909   0.00000   0.08562   0.08580   2.72294
   R10        2.05850   0.00671   0.00000   0.01480   0.01480   2.07330
   R11        2.67672   0.05195   0.00000   0.09943   0.09944   2.77616
   R12        2.63944   0.04902   0.00000   0.08722   0.08746   2.72690
   R13        2.68272   0.00522   0.00000   0.00884   0.00839   2.69112
   R14        2.64479   0.00047   0.00000  -0.00175  -0.00200   2.64279
   R15        2.05970   0.00572   0.00000   0.01264   0.01264   2.07234
   R16        2.62457   0.04300   0.00000   0.07065   0.07085   2.69542
   R17        2.05597   0.01176   0.00000   0.02583   0.02583   2.08181
   R18        2.62515   0.02069   0.00000   0.03561   0.03606   2.66121
   R19        2.05270   0.01347   0.00000   0.02945   0.02945   2.08214
   R20        2.19072   0.10991   0.00000   0.07367   0.07367   2.26439
    A1        2.08450   0.00053   0.00000   0.00193   0.00197   2.08647
    A2        2.09540   0.00127   0.00000   0.00408   0.00412   2.09952
    A3        2.10328  -0.00180   0.00000  -0.00601  -0.00632   2.09696
    A4        2.09202   0.00242   0.00000   0.00214   0.00169   2.09372
    A5        2.13243  -0.00579   0.00000  -0.01441  -0.01423   2.11820
    A6        2.05873   0.00337   0.00000   0.01227   0.01245   2.07118
    A7        2.09884   0.00253   0.00000   0.00377   0.00355   2.10239
    A8        2.10563  -0.00573   0.00000  -0.02024  -0.02013   2.08550
    A9        2.07872   0.00320   0.00000   0.01647   0.01657   2.09529
   A10        2.10428   0.00906   0.00000   0.03037   0.03053   2.13480
   A11        2.07925  -0.00110   0.00000  -0.00108  -0.00116   2.07809
   A12        2.09965  -0.00796   0.00000  -0.02929  -0.02938   2.07027
   A13        2.10812  -0.01912   0.00000  -0.05401  -0.05365   2.05447
   A14        2.07052   0.00605   0.00000   0.01154   0.01136   2.08188
   A15        2.10454   0.01307   0.00000   0.04247   0.04228   2.14683
   A16        2.05984   0.00690   0.00000   0.02375   0.02415   2.08399
   A17        2.18063  -0.01131   0.00000  -0.03585  -0.03571   2.14493
   A18        2.04271   0.00441   0.00000   0.01210   0.01113   2.05384
   A19        2.12262  -0.00696   0.00000  -0.02914  -0.02998   2.09264
   A20        2.11146  -0.00278   0.00000  -0.01114  -0.01075   2.10071
   A21        2.04911   0.00973   0.00000   0.04028   0.04067   2.08979
   A22        2.09427   0.00841   0.00000   0.01839   0.01812   2.11240
   A23        2.09653  -0.01045   0.00000  -0.03487  -0.03492   2.06161
   A24        2.09239   0.00204   0.00000   0.01649   0.01637   2.10876
   A25        2.08613   0.02023   0.00000   0.06266   0.06295   2.14909
   A26        2.10866  -0.01590   0.00000  -0.05512  -0.05570   2.05296
   A27        2.08839  -0.00433   0.00000  -0.00754  -0.00820   2.08019
   A28        2.11609  -0.03917   0.00000  -0.10650  -0.10535   2.01074
   A29        3.15150   0.00139   0.00000   0.01681   0.01681   3.16831
   A30        3.17527   0.00032   0.00000   0.00266   0.00266   3.17793
   A31        3.14165   0.00439   0.00000   0.05301   0.05301   3.19466
   A32        3.14148  -0.00039   0.00000  -0.00326  -0.00326   3.13822
    D1       -3.14128  -0.00285   0.00000  -0.03292  -0.03285   3.10905
    D2        0.00051  -0.00161   0.00000  -0.01873  -0.01879  -0.01828
    D3        0.00045  -0.00089   0.00000  -0.01023  -0.01016  -0.00971
    D4       -3.14094   0.00035   0.00000   0.00396   0.00390  -3.13704
    D5        3.14149   0.00280   0.00000   0.03257   0.03263  -3.10906
    D6       -0.00030   0.00007   0.00000   0.00077   0.00073   0.00043
    D7       -0.00024   0.00083   0.00000   0.00974   0.00977   0.00953
    D8        3.14115  -0.00190   0.00000  -0.02206  -0.02213   3.11902
    D9       -0.00025   0.00048   0.00000   0.00528   0.00534   0.00509
   D10        3.14147   0.00068   0.00000   0.00773   0.00773  -3.13398
   D11        3.14116  -0.00071   0.00000  -0.00832  -0.00835   3.13280
   D12       -0.00031  -0.00051   0.00000  -0.00587  -0.00596  -0.00627
   D13       -0.00017  -0.00002   0.00000  -0.00004  -0.00011  -0.00028
   D14       -3.14154   0.00058   0.00000   0.00670   0.00667  -3.13487
   D15        3.14130  -0.00021   0.00000  -0.00245  -0.00252   3.13878
   D16       -0.00007   0.00038   0.00000   0.00429   0.00426   0.00418
   D17        0.00038  -0.00004   0.00000  -0.00029  -0.00024   0.00014
   D18       -3.14100   0.00034   0.00000   0.00422   0.00397  -3.13702
   D19       -3.14143  -0.00064   0.00000  -0.00711  -0.00699   3.13477
   D20        0.00038  -0.00026   0.00000  -0.00259  -0.00278  -0.00240
   D21       -0.00017  -0.00036   0.00000  -0.00450  -0.00454  -0.00472
   D22       -3.14158   0.00215   0.00000   0.02478   0.02571  -3.11587
   D23        3.14120  -0.00075   0.00000  -0.00910  -0.00892   3.13227
   D24       -0.00021   0.00176   0.00000   0.02017   0.02133   0.02112
   D25        3.14124  -0.00426   0.00000  -0.04821  -0.04758   3.09366
   D26       -0.00013  -0.00387   0.00000  -0.04369  -0.04313  -0.04326
   D27       -3.14098   0.00370   0.00000   0.04251   0.04290  -3.09809
   D28        0.00032   0.00276   0.00000   0.03200   0.03180   0.03212
   D29        0.00041   0.00100   0.00000   0.01099   0.01152   0.01192
   D30       -3.14147   0.00006   0.00000   0.00049   0.00042  -3.14105
   D31       -0.00027  -0.00173   0.00000  -0.01961  -0.02023  -0.02050
   D32        3.14114   0.00110   0.00000   0.01227   0.01086  -3.13119
   D33       -3.14158  -0.00082   0.00000  -0.00946  -0.00920   3.13241
   D34       -0.00018   0.00201   0.00000   0.02242   0.02189   0.02172
   D35       -0.00009  -0.00034   0.00000  -0.00334  -0.00418  -0.00427
   D36        3.14131   0.00392   0.00000   0.04389   0.04312  -3.09876
   D37       -3.14149  -0.00316   0.00000  -0.03514  -0.03611   3.10558
   D38       -0.00009   0.00110   0.00000   0.01209   0.01119   0.01109
   D39        0.00029   0.00312   0.00000   0.03488   0.03456   0.03485
   D40       -3.14111  -0.00109   0.00000  -0.01180  -0.01343   3.12864
         Item               Value     Threshold  Converged?
 Maximum Force            0.111489     0.000450     NO 
 RMS     Force            0.021249     0.000300     NO 
 Maximum Displacement     0.238308     0.001800     NO 
 RMS     Displacement     0.052158     0.001200     NO 
 Predicted change in Energy=-3.220537D-02
 GradGradGradGradGradGradGradGradGradGradGradGradGradGradGradGradGradGrad

                          Input orientation:                          
 ---------------------------------------------------------------------
 Center     Atomic      Atomic             Coordinates (Angstroms)
 Number     Number       Type             X           Y           Z
 ---------------------------------------------------------------------
      1          7           0        1.102688   -0.191636   -0.013118
      2          6           0        2.300055   -0.137091    0.019759
      3          6           0        3.753626   -0.109478   -0.015052
      4          6           0        4.435286    1.147166   -0.006274
      5          6           0        5.864780    1.184170    0.000021
      6          6           0        6.604379   -0.002031   -0.008476
      7          6           0        5.978575   -1.299875   -0.023389
      8          6           0        4.510378   -1.350339   -0.029804
      9          6           0        3.892549   -2.633292   -0.012107
     10          6           0        4.682269   -3.786891    0.024892
     11          6           0        6.106186   -3.703661    0.020374
     12          6           0        6.805707   -2.482304   -0.025757
     13          7           0        3.140299    3.462355    0.035056
     14          6           0        3.704213    2.405282    0.014183
     15          1           0        6.379748    2.152408    0.014006
     16          1           0        7.700087    0.052925    0.003051
     17          1           0        2.799538   -2.722268   -0.016564
     18          1           0        4.173970   -4.764257    0.027670
     19          1           0        6.673157   -4.648343    0.008948
 ---------------------------------------------------------------------
                    Distance matrix (angstroms):
                    1          2          3          4          5
     1  N    0.000000
     2  C    1.199060   0.000000
     3  C    2.652212   1.454250   0.000000
     4  C    3.591469   2.491828   1.429647   0.000000
     5  C    4.956868   3.801761   2.476030   1.429987   0.000000
     6  C    5.504960   4.306535   2.852785   2.454714   1.397910
     7  C    5.000258   3.858165   2.523393   2.893102   2.486760
     8  C    3.599337   2.521895   1.453488   2.498744   2.873853
     9  C    3.707426   2.961093   2.527636   3.819222   4.296843
    10  C    5.073530   4.358441   3.793064   4.940333   5.109833
    11  C    6.113136   5.216038   4.295805   5.130608   4.893831
    12  C    6.145872   5.079665   3.865956   4.335011   3.785372
    13  N    4.183996   3.696249   3.624455   2.653074   3.551640
    14  C    3.675957   2.904368   2.515415   1.455246   2.481806
    15  H    5.774309   4.678220   3.466048   2.189031   1.096756
    16  H    6.601950   5.403400   3.949842   3.443308   2.155940
    17  H    3.046869   2.633237   2.781538   4.200987   4.965505
    18  H    5.508476   4.992222   4.673915   5.917293   6.184124
    19  H    7.133922   6.282955   5.396807   6.212585   5.888273
                    6          7          8          9         10
     6  C    0.000000
     7  C    1.440920   0.000000
     8  C    2.490628   1.469078   0.000000
     9  C    3.778567   2.475810   1.424077   0.000000
    10  C    4.245090   2.804994   2.443220   1.398505   0.000000
    11  C    3.735116   2.407569   2.843808   2.459051   1.426355
    12  C    2.488490   1.443015   2.559276   2.917100   2.492690
    13  N    4.899358   5.544191   5.004332   6.142069   7.411433
    14  C    3.769168   4.347679   3.841422   5.042161   6.268948
    15  H    2.166235   3.475715   3.970605   5.393493   6.177121
    16  H    1.097145   2.189604   3.484891   4.659757   4.883839
    17  H    4.677240   3.482747   2.193020   1.096636   2.163289
    18  H    5.346681   3.906553   3.430934   2.149835   1.101644
    19  H    4.646853   3.419902   3.944102   3.434043   2.169329
                   11         12         13         14         15
    11  C    0.000000
    12  C    1.408251   0.000000
    13  N    7.755545   6.984116   0.000000
    14  C    6.564198   5.788726   1.198265   0.000000
    15  H    5.862459   4.654415   3.494343   2.687458   0.000000
    16  H    4.080779   2.688518   5.693584   4.636886   2.480170
    17  H    3.449409   4.013360   6.194218   5.206836   6.048248
    18  H    2.204172   3.483706   8.291301   7.184924   7.259883
    19  H    1.101821   2.170368   8.846761   7.652991   6.807079
                   16         17         18         19
    16  H    0.000000
    17  H    5.631825   0.000000
    18  H    5.969870   2.461857   0.000000
    19  H    4.812124   4.326123   2.501944   0.000000
 Stoichiometry    C12H5N2(1-)
 Framework group  C1[X(C12H5N2)]
 Deg. of freedom    51
 Full point group                 C1      NOp   1
 Largest Abelian subgroup         C1      NOp   1
 Largest concise Abelian subgroup C1      NOp   1
                         Standard orientation:                         
 ---------------------------------------------------------------------
 Center     Atomic      Atomic             Coordinates (Angstroms)
 Number     Number       Type             X           Y           Z
 ---------------------------------------------------------------------
      1          7           0        1.762457    2.925458   -0.019047
      2          6           0        1.310799    1.815264    0.015851
      3          6           0        0.727278    0.483609   -0.016444
      4          6           0        1.583149   -0.661516   -0.008474
      5          6           0        1.018326   -1.975198    0.000280
      6          6           0       -0.368566   -2.150280   -0.005020
      7          6           0       -1.285250   -1.038638   -0.018960
      8          6           0       -0.716448    0.315827   -0.027881
      9          6           0       -1.622876    1.414023   -0.009221
     10          6           0       -3.001043    1.179818    0.031011
     11          6           0       -3.521575   -0.148162    0.028868
     12          6           0       -2.705348   -1.294787   -0.017983
     13          7           0        4.227910   -0.454669    0.026877
     14          6           0        3.031807   -0.524273    0.008686
     15          1           0        1.682076   -2.848199    0.013625
     16          1           0       -0.777339   -3.168344    0.008349
     17          1           0       -1.246111    2.443887   -0.015462
     18          1           0       -3.675839    2.050599    0.034456
     19          1           0       -4.616869   -0.267584    0.019950
 ---------------------------------------------------------------------
 Rotational constants (GHZ):      1.3314131      0.5507913      0.3896521
 Standard basis: STO-3G (5D, 7F)
 There are    75 symmetry adapted cartesian basis functions of A   symmetry.
 There are    75 symmetry adapted basis functions of A   symmetry.
    75 basis functions,   225 primitive gaussians,    75 cartesian basis functions
    46 alpha electrons       46 beta electrons
       nuclear repulsion energy       704.0116122364 Hartrees.
 NAtoms=   19 NActive=   19 NUniq=   19 SFac= 1.00D+00 NAtFMM=   60 NAOKFM=F Big=F
 Integral buffers will be    131072 words long.
 Raffenetti 2 integral format.
 Two-electron integral symmetry is turned on.
 One-electron integrals computed using PRISM.
 NBasis=    75 RedAO= T EigKep=  1.74D-01  NBF=    75
 NBsUse=    75 1.00D-06 EigRej= -1.00D+00 NBFU=    75
 Initial guess from the checkpoint file:  "/tmp/bnp.472673.sequoia/Gau-27129.chk"
 B after Tr=     0.000000    0.000000    0.000000
         Rot=    0.999987    0.000053   -0.000035    0.005115 Ang=   0.59 deg.
 ExpMin= 1.69D-01 ExpMax= 9.91D+01 ExpMxC= 9.91D+01 IAcc=1 IRadAn=         1 AccDes= 0.00D+00
 Harris functional with IExCor=  402 and IRadAn=       1 diagonalized for initial guess.
 HarFok:  IExCor=  402 AccDes= 0.00D+00 IRadAn=         1 IDoV= 1 UseB2=F ITyADJ=14
 ICtDFT=  3500011 ScaDFX=  1.000000  1.000000  1.000000  1.000000
 FoFCou: FMM=F IPFlag=           0 FMFlag=      100000 FMFlg1=           0
         NFxFlg=           0 DoJE=T BraDBF=F KetDBF=T FulRan=T
         wScrn=  0.000000 ICntrl=     500 IOpCl=  0 I1Cent=   200000004 NGrid=           0
         NMat0=    1 NMatS0=      1 NMatT0=    0 NMatD0=    1 NMtDS0=    0 NMtDT0=    0
 Petite list used in FoFCou.
 Keep R1 ints in memory in canonical form, NReq=4993994.
 Requested convergence on RMS density matrix=1.00D-08 within 128 cycles.
 Requested convergence on MAX density matrix=1.00D-06.
 Requested convergence on             energy=1.00D-06.
 No special actions if energy rises.
 Integral accuracy reduced to 1.0D-05 until final iterations.
 Initial convergence to 1.0D-05 achieved.  Increase integral accuracy.
 SCF Done:  E(RB3LYP) =  -562.502387838     A.U. after   19 cycles
            NFock= 19  Conv=0.79D-08     -V/T= 2.0141
 Calling FoFJK, ICntrl=      2127 FMM=F ISym2X=0 I1Cent= 0 IOpClX= 0 NMat=1 NMatS=1 NMatT=0.
 ***** Axes restored to original set *****
 -------------------------------------------------------------------
 Center     Atomic                   Forces (Hartrees/Bohr)
 Number     Number              X              Y              Z
 -------------------------------------------------------------------
      1        7          -0.006676134   -0.000216023    0.000457381
      2        6           0.004474112    0.000201834    0.000318836
      3        6           0.001729177    0.002167335    0.000640958
      4        6          -0.002556162   -0.001720711   -0.000190361
      5        6           0.010225199   -0.006257767    0.000230444
      6        6          -0.010392762    0.009678581    0.000328829
      7        6          -0.007649693   -0.006058640    0.003262605
      8        6          -0.000131993    0.007503263   -0.004964779
      9        6          -0.003704866   -0.007498734    0.000152897
     10        6          -0.000164216   -0.001932565    0.003397712
     11        6          -0.009055193    0.009164704    0.003320972
     12        6           0.028960641   -0.004281892   -0.005033905
     13        7          -0.003195002    0.005653169    0.000062788
     14        6           0.001096732   -0.004616922   -0.000046906
     15        1          -0.001798223    0.001510667   -0.000083065
     16        1           0.001776243   -0.001778585    0.000865847
     17        1          -0.000302264    0.002528728   -0.000900472
     18        1          -0.000587763   -0.000738981   -0.000783523
     19        1          -0.002047833   -0.003307462   -0.001036259
 -------------------------------------------------------------------
 Cartesian Forces:  Max     0.028960641 RMS     0.005715475

 GradGradGradGradGradGradGradGradGradGradGradGradGradGradGradGradGradGrad
 Berny optimization.
 Using GEDIIS/GDIIS optimizer.
 FormGI is forming the generalized inverse of G from B-inverse, IUseBI=4.
 Internal  Forces:  Max     0.017476978 RMS     0.003566293
 Search for a local minimum.
 Step number   2 out of a maximum of  102
 All quantities printed in internal units (Hartrees-Bohrs-Radians)
 Mixed Optimization -- RFO/linear search
 Update second derivatives using D2CorX and points    1    2
 DE= -3.00D-02 DEPred=-3.22D-02 R= 9.32D-01
 TightC=F SS=  1.41D+00  RLast= 3.28D-01 DXNew= 5.0454D-01 9.8324D-01
 Trust test= 9.32D-01 RLast= 3.28D-01 DXMaxT set to 5.05D-01
 ITU=  1  0
 Use linear search instead of GDIIS.
     Eigenvalues ---    0.01577   0.01593   0.01827   0.01853   0.01885
     Eigenvalues ---    0.01945   0.01989   0.02039   0.02043   0.02093
     Eigenvalues ---    0.02139   0.02143   0.02166   0.02170   0.02215
     Eigenvalues ---    0.02251   0.04876   0.04877   0.15816   0.15993
     Eigenvalues ---    0.15999   0.16000   0.16060   0.21459   0.22178
     Eigenvalues ---    0.22735   0.24186   0.24751   0.24993   0.24996
     Eigenvalues ---    0.25067   0.34826   0.34857   0.34886   0.35085
     Eigenvalues ---    0.35290   0.38343   0.39751   0.39927   0.40118
     Eigenvalues ---    0.41020   0.42862   0.43448   0.45038   0.45332
     Eigenvalues ---    0.45943   0.46396   0.46991   0.50538   1.28200
     Eigenvalues ---    1.34099
 RFO step:  Lambda=-4.57625124D-03 EMin= 1.57672585D-02
 Quartic linear search produced a step of  0.22671.
 Iteration  1 RMS(Cart)=  0.04542667 RMS(Int)=  0.00199514
 Iteration  2 RMS(Cart)=  0.00260822 RMS(Int)=  0.00056870
 Iteration  3 RMS(Cart)=  0.00000435 RMS(Int)=  0.00056870
 Iteration  4 RMS(Cart)=  0.00000000 RMS(Int)=  0.00056870
 Variable       Old X    -DE/DX   Delta X   Delta X   Delta X     New X
                                 (Linear)    (Quad)   (Total)
    R1        2.26589   0.00666   0.01696  -0.00950   0.00746   2.27335
    R2        2.74814   0.00222   0.00666   0.00043   0.00709   2.75522
    R3        2.70164  -0.00302   0.00921  -0.01711  -0.00793   2.69371
    R4        2.74669   0.00062   0.01144  -0.00852   0.00295   2.74964
    R5        2.70228   0.00314   0.01345  -0.00510   0.00830   2.71058
    R6        2.75002   0.00195   0.00785  -0.00158   0.00628   2.75629
    R7        2.64167  -0.00515   0.00210  -0.01580  -0.01373   2.62794
    R8        2.07257   0.00049   0.00302  -0.00119   0.00183   2.07440
    R9        2.72294   0.00314   0.01945  -0.01012   0.00935   2.73230
   R10        2.07330   0.00169   0.00336   0.00266   0.00601   2.07932
   R11        2.77616   0.00440   0.02254  -0.00722   0.01519   2.79134
   R12        2.72690   0.01315   0.01983   0.01680   0.03661   2.76351
   R13        2.69112   0.00198   0.00190   0.00375   0.00546   2.69658
   R14        2.64279  -0.00241  -0.00045  -0.00708  -0.00751   2.63528
   R15        2.07234   0.00010   0.00287  -0.00239   0.00047   2.07281
   R16        2.69542   0.00262   0.01606  -0.00955   0.00671   2.70213
   R17        2.08181   0.00092   0.00586  -0.00241   0.00345   2.08526
   R18        2.66121   0.00742   0.00818   0.01124   0.01960   2.68081
   R19        2.08214   0.00179   0.00668  -0.00023   0.00645   2.08859
   R20        2.26439   0.00649   0.01670  -0.00943   0.00727   2.27166
    A1        2.08647  -0.00033   0.00045  -0.00266  -0.00247   2.08400
    A2        2.09952  -0.00005   0.00093  -0.00176  -0.00108   2.09844
    A3        2.09696   0.00037  -0.00143   0.00374   0.00207   2.09903
    A4        2.09372  -0.00093   0.00038  -0.00617  -0.00594   2.08778
    A5        2.11820  -0.00149  -0.00323  -0.00349  -0.00673   2.11148
    A6        2.07118   0.00242   0.00282   0.00947   0.01228   2.08347
    A7        2.10239  -0.00017   0.00081  -0.00397  -0.00328   2.09911
    A8        2.08550  -0.00230  -0.00456  -0.01163  -0.01615   2.06935
    A9        2.09529   0.00247   0.00376   0.01557   0.01937   2.11466
   A10        2.13480   0.00475   0.00692   0.01831   0.02519   2.15999
   A11        2.07809  -0.00045  -0.00026   0.00195   0.00168   2.07977
   A12        2.07027  -0.00430  -0.00666  -0.02033  -0.02700   2.04327
   A13        2.05447  -0.00671  -0.01216  -0.02073  -0.03248   2.02199
   A14        2.08188  -0.00143   0.00257  -0.01158  -0.00872   2.07316
   A15        2.14683   0.00814   0.00959   0.03236   0.04119   2.18801
   A16        2.08399   0.00269   0.00548   0.00868   0.01411   2.09810
   A17        2.14493  -0.00305  -0.00809  -0.00901  -0.01745   2.12748
   A18        2.05384   0.00032   0.00252  -0.00123  -0.00025   2.05359
   A19        2.09264  -0.00291  -0.00680  -0.01238  -0.01993   2.07271
   A20        2.10071  -0.00120  -0.00244  -0.00783  -0.00995   2.09076
   A21        2.08979   0.00411   0.00922   0.02009   0.02961   2.11940
   A22        2.11240   0.00130   0.00411  -0.00259   0.00091   2.11331
   A23        2.06161  -0.00086  -0.00792   0.00493  -0.00333   2.05828
   A24        2.10876  -0.00047   0.00371  -0.00367  -0.00044   2.10832
   A25        2.14909   0.01055   0.01427   0.04006   0.05391   2.20300
   A26        2.05296  -0.00889  -0.01263  -0.04230  -0.05530   1.99766
   A27        2.08019  -0.00171  -0.00186   0.00052  -0.00193   2.07827
   A28        2.01074  -0.01748  -0.02388  -0.05924  -0.08305   1.92769
   A29        3.16831  -0.00019   0.00381  -0.01683  -0.01302   3.15528
   A30        3.17793  -0.00036   0.00060  -0.00892  -0.00832   3.16962
   A31        3.19466  -0.00140   0.01202  -0.10130  -0.08929   3.10538
   A32        3.13822   0.00012  -0.00074   0.00350   0.00276   3.14098
    D1        3.10905  -0.00112  -0.00745  -0.04761  -0.05501   3.05404
    D2       -0.01828  -0.00073  -0.00426  -0.03197  -0.03631  -0.05459
    D3       -0.00971  -0.00031  -0.00230  -0.01300  -0.01521  -0.02493
    D4       -3.13704   0.00008   0.00088   0.00264   0.00349  -3.13355
    D5       -3.10906   0.00123   0.00740   0.05446   0.06194  -3.04713
    D6        0.00043  -0.00010   0.00016  -0.00446  -0.00443  -0.00400
    D7        0.00953   0.00041   0.00221   0.01958   0.02179   0.03132
    D8        3.11902  -0.00092  -0.00502  -0.03934  -0.04458   3.07444
    D9        0.00509   0.00004   0.00121  -0.00073   0.00064   0.00573
   D10       -3.13398   0.00022   0.00175   0.00833   0.01006  -3.12392
   D11        3.13280  -0.00036  -0.00189  -0.01605  -0.01792   3.11489
   D12       -0.00627  -0.00019  -0.00135  -0.00699  -0.00849  -0.01476
   D13       -0.00028   0.00014  -0.00003   0.00792   0.00782   0.00754
   D14       -3.13487   0.00041   0.00151   0.01929   0.02076  -3.11412
   D15        3.13878  -0.00004  -0.00057  -0.00123  -0.00190   3.13688
   D16        0.00418   0.00023   0.00097   0.01013   0.01103   0.01522
   D17        0.00014  -0.00005  -0.00005  -0.00122  -0.00140  -0.00125
   D18       -3.13702  -0.00036   0.00090  -0.01359  -0.01303   3.13313
   D19        3.13477  -0.00031  -0.00158  -0.01245  -0.01397   3.12079
   D20       -0.00240  -0.00061  -0.00063  -0.02481  -0.02561  -0.02801
   D21       -0.00472  -0.00021  -0.00103  -0.01237  -0.01323  -0.01795
   D22       -3.11587   0.00111   0.00583   0.04365   0.05071  -3.06516
   D23        3.13227   0.00008  -0.00202   0.00036  -0.00088   3.13140
   D24        0.02112   0.00141   0.00484   0.05638   0.06306   0.08418
   D25        3.09366  -0.00158  -0.01079  -0.06895  -0.07826   3.01540
   D26       -0.04326  -0.00186  -0.00978  -0.08185  -0.09089  -0.13415
   D27       -3.09809   0.00172   0.00972   0.06844   0.07917  -3.01892
   D28        0.03212   0.00127   0.00721   0.05650   0.06384   0.09596
   D29        0.01192   0.00045   0.00261   0.01066   0.01468   0.02661
   D30       -3.14105   0.00000   0.00010  -0.00129  -0.00065   3.14148
   D31       -0.02050  -0.00117  -0.00459  -0.04515  -0.05029  -0.07079
   D32       -3.13119  -0.00001   0.00246   0.00398   0.00504  -3.12615
   D33        3.13241  -0.00069  -0.00209  -0.03310  -0.03443   3.09798
   D34        0.02172   0.00047   0.00496   0.01603   0.02090   0.04262
   D35       -0.00427   0.00010  -0.00095   0.01475   0.01261   0.00834
   D36       -3.09876   0.00135   0.00977   0.05779   0.06618  -3.03259
   D37        3.10558  -0.00110  -0.00819  -0.03556  -0.04435   3.06123
   D38        0.01109   0.00015   0.00254   0.00749   0.00921   0.02030
   D39        0.03485   0.00115   0.00784   0.04645   0.05363   0.08848
   D40        3.12864  -0.00029  -0.00305   0.00170  -0.00343   3.12521
         Item               Value     Threshold  Converged?
 Maximum Force            0.017477     0.000450     NO 
 RMS     Force            0.003566     0.000300     NO 
 Maximum Displacement     0.227347     0.001800     NO 
 RMS     Displacement     0.046034     0.001200     NO 
 Predicted change in Energy=-2.916817D-03
 GradGradGradGradGradGradGradGradGradGradGradGradGradGradGradGradGradGrad

                          Input orientation:                          
 ---------------------------------------------------------------------
 Center     Atomic      Atomic             Coordinates (Angstroms)
 Number     Number       Type             X           Y           Z
 ---------------------------------------------------------------------
      1          7           0        1.109331   -0.189074    0.107189
      2          6           0        2.307111   -0.144146    0.004576
      3          6           0        3.762862   -0.110965   -0.069288
      4          6           0        4.437038    1.144452   -0.032855
      5          6           0        5.870543    1.178552    0.003853
      6          6           0        6.600301   -0.005212   -0.002923
      7          6           0        5.999357   -1.319250   -0.054935
      8          6           0        4.523292   -1.351098   -0.100612
      9          6           0        3.886502   -2.627326   -0.056165
     10          6           0        4.679031   -3.768888    0.059824
     11          6           0        6.106188   -3.681199    0.047268
     12          6           0        6.872055   -2.492627   -0.067800
     13          7           0        3.104045    3.445590    0.042832
     14          6           0        3.690310    2.396679    0.008903
     15          1           0        6.371387    2.154331    0.048629
     16          1           0        7.698262    0.041468    0.052038
     17          1           0        2.791963   -2.691653   -0.087863
     18          1           0        4.173371   -4.749512    0.077952
     19          1           0        6.624541   -4.657282    0.036800
 ---------------------------------------------------------------------
                    Distance matrix (angstroms):
                    1          2          3          4          5
     1  N    0.000000
     2  C    1.203007   0.000000
     3  C    2.660540   1.458001   0.000000
     4  C    3.587693   2.489674   1.425452   0.000000
     5  C    4.954818   3.800996   2.471947   1.434380   0.000000
     6  C    5.495151   4.295443   2.840184   2.449965   1.390643
     7  C    5.021547   3.875188   2.542060   2.917388   2.501812
     8  C    3.612286   2.525718   1.455048   2.497959   2.867948
     9  C    3.699248   2.943527   2.519431   3.811817   4.292404
    10  C    5.055697   4.332183   3.773120   4.920168   5.089203
    11  C    6.096483   5.190910   4.272158   5.106798   4.865654
    12  C    6.208540   5.134132   3.916554   4.377085   3.806010
    13  N    4.146542   3.677332   3.618798   2.660421   3.576939
    14  C    3.654755   2.892931   2.509911   1.458567   2.497453
    15  H    5.760574   4.669398   3.456859   2.183621   1.097723
    16  H    6.593194   5.394553   3.940219   3.443742   2.153099
    17  H    3.021952   2.594883   2.757343   4.174326   4.946165
    18  H    5.494251   4.969679   4.659004   5.900900   6.166671
    19  H    7.098407   6.245770   5.373031   6.200818   5.884434
                    6          7          8          9         10
     6  C    0.000000
     7  C    1.445868   0.000000
     8  C    2.476876   1.477115   0.000000
     9  C    3.773993   2.484999   1.426968   0.000000
    10  C    4.226165   2.785166   2.428107   1.394531   0.000000
    11  C    3.709386   2.366571   2.820780   2.459340   1.429904
    12  C    2.503056   1.462389   2.611677   2.988613   2.540568
    13  N    4.912630   5.576387   5.004303   6.123917   7.384414
    14  C    3.773230   4.375374   3.840791   5.028255   6.244547
    15  H    2.172254   3.494982   3.965572   5.389795   6.160253
    16  H    1.100327   2.179284   3.470299   4.654427   4.861546
    17  H    4.661289   3.488832   2.189692   1.096886   2.177906
    18  H    5.329626   3.888262   3.421046   2.145683   1.103470
    19  H    4.652303   3.397312   3.919820   3.409725   2.138875
                   11         12         13         14         15
    11  C    0.000000
    12  C    1.418625   0.000000
    13  N    7.733305   7.033674   0.000000
    14  C    6.540530   5.833926   1.202112   0.000000
    15  H    5.841553   4.675301   3.513248   2.692301   0.000000
    16  H    4.048824   2.668074   5.717951   4.648930   2.494954
    17  H    3.461438   4.084993   6.146562   5.167931   6.026149
    18  H    2.208623   3.521033   8.264648   7.162832   7.245356
    19  H    1.105232   2.181270   8.834618   7.639951   6.816327
                   16         17         18         19
    16  H    0.000000
    17  H    5.617944   0.000000
    18  H    5.948027   2.484063   0.000000
    19  H    4.819893   4.309048   2.453249   0.000000
 Stoichiometry    C12H5N2(1-)
 Framework group  C1[X(C12H5N2)]
 Deg. of freedom    51
 Full point group                 C1      NOp   1
 Largest Abelian subgroup         C1      NOp   1
 Largest concise Abelian subgroup C1      NOp   1
                         Standard orientation:                         
 ---------------------------------------------------------------------
 Center     Atomic      Atomic             Coordinates (Angstroms)
 Number     Number       Type             X           Y           Z
 ---------------------------------------------------------------------
      1          7           0        1.798960    2.901170    0.070652
      2          6           0        1.325108    1.798938   -0.017531
      3          6           0        0.730105    0.469064   -0.073867
      4          6           0        1.574994   -0.678136   -0.029095
      5          6           0        0.990918   -1.987101    0.024867
      6          6           0       -0.391475   -2.138348    0.026657
      7          6           0       -1.320814   -1.032307   -0.032822
      8          6           0       -0.716487    0.314033   -0.096264
      9          6           0       -1.595812    1.437282   -0.059716
     10          6           0       -2.966404    1.212576    0.065593
     11          6           0       -3.499598   -0.114190    0.070228
     12          6           0       -2.755185   -1.317181   -0.035399
     13          7           0        4.225838   -0.460749    0.030966
     14          6           0        3.026683   -0.540556    0.003903
     15          1           0        1.657633   -2.857668    0.075845
     16          1           0       -0.820128   -3.149450    0.094835
     17          1           0       -1.184450    2.453120   -0.104595
     18          1           0       -3.635116    2.090260    0.077456
     19          1           0       -4.603714   -0.163651    0.065820
 ---------------------------------------------------------------------
 Rotational constants (GHZ):      1.3302081      0.5509030      0.3898697
 Standard basis: STO-3G (5D, 7F)
 There are    75 symmetry adapted cartesian basis functions of A   symmetry.
 There are    75 symmetry adapted basis functions of A   symmetry.
    75 basis functions,   225 primitive gaussians,    75 cartesian basis functions
    46 alpha electrons       46 beta electrons
       nuclear repulsion energy       703.3552852969 Hartrees.
 NAtoms=   19 NActive=   19 NUniq=   19 SFac= 1.00D+00 NAtFMM=   60 NAOKFM=F Big=F
 Integral buffers will be    131072 words long.
 Raffenetti 2 integral format.
 Two-electron integral symmetry is turned on.
 One-electron integrals computed using PRISM.
 NBasis=    75 RedAO= T EigKep=  1.75D-01  NBF=    75
 NBsUse=    75 1.00D-06 EigRej= -1.00D+00 NBFU=    75
 Initial guess from the checkpoint file:  "/tmp/bnp.472673.sequoia/Gau-27129.chk"
 B after Tr=     0.000000    0.000000    0.000000
         Rot=    0.999990    0.000119   -0.000048    0.004538 Ang=   0.52 deg.
 ExpMin= 1.69D-01 ExpMax= 9.91D+01 ExpMxC= 9.91D+01 IAcc=1 IRadAn=         1 AccDes= 0.00D+00
 Harris functional with IExCor=  402 and IRadAn=       1 diagonalized for initial guess.
 HarFok:  IExCor=  402 AccDes= 0.00D+00 IRadAn=         1 IDoV= 1 UseB2=F ITyADJ=14
 ICtDFT=  3500011 ScaDFX=  1.000000  1.000000  1.000000  1.000000
 FoFCou: FMM=F IPFlag=           0 FMFlag=      100000 FMFlg1=           0
         NFxFlg=           0 DoJE=T BraDBF=F KetDBF=T FulRan=T
         wScrn=  0.000000 ICntrl=     500 IOpCl=  0 I1Cent=   200000004 NGrid=           0
         NMat0=    1 NMatS0=      1 NMatT0=    0 NMatD0=    1 NMtDS0=    0 NMtDT0=    0
 Petite list used in FoFCou.
 Keep R1 ints in memory in canonical form, NReq=4993994.
 Requested convergence on RMS density matrix=1.00D-08 within 128 cycles.
 Requested convergence on MAX density matrix=1.00D-06.
 Requested convergence on             energy=1.00D-06.
 No special actions if energy rises.
 Integral accuracy reduced to 1.0D-05 until final iterations.
 Initial convergence to 1.0D-05 achieved.  Increase integral accuracy.
 SCF Done:  E(RB3LYP) =  -562.505115128     A.U. after   17 cycles
            NFock= 17  Conv=0.47D-08     -V/T= 2.0141
 Calling FoFJK, ICntrl=      2127 FMM=F ISym2X=0 I1Cent= 0 IOpClX= 0 NMat=1 NMatS=1 NMatT=0.
 ***** Axes restored to original set *****
 -------------------------------------------------------------------
 Center     Atomic                   Forces (Hartrees/Bohr)
 Number     Number              X              Y              Z
 -------------------------------------------------------------------
      1        7           0.003635832   -0.000024876   -0.002608002
      2        6          -0.004325422    0.000100448    0.004145750
      3        6           0.003533952   -0.000758947   -0.001831166
      4        6          -0.000931649    0.000097829    0.000023112
      5        6           0.000702981    0.000735993    0.000190910
      6        6          -0.000136797   -0.000689312   -0.000462975
      7        6          -0.005936041    0.005092956   -0.000381775
      8        6           0.000808341    0.002963395    0.002140504
      9        6          -0.001784851   -0.001556635    0.000763503
     10        6          -0.000267196   -0.000285010   -0.002069581
     11        6          -0.002981056   -0.003146170   -0.002453991
     12        6           0.005959091   -0.001863518    0.001061713
     13        7           0.001504324   -0.002565677   -0.000062974
     14        6          -0.001539703    0.002247070   -0.000312683
     15        1          -0.000206582   -0.000337534    0.000028817
     16        1          -0.000177464   -0.000114561   -0.000123660
     17        1           0.000273682    0.000127292   -0.000329730
     18        1           0.001548475    0.000147700    0.001187653
     19        1           0.000320082   -0.000170444    0.001094574
 -------------------------------------------------------------------
 Cartesian Forces:  Max     0.005959091 RMS     0.002085169

 GradGradGradGradGradGradGradGradGradGradGradGradGradGradGradGradGradGrad
 Berny optimization.
 Using GEDIIS/GDIIS optimizer.
 FormGI is forming the generalized inverse of G from B-inverse, IUseBI=4.
 Internal  Forces:  Max     0.005710808 RMS     0.001171910
 Search for a local minimum.
 Step number   3 out of a maximum of  102
 All quantities printed in internal units (Hartrees-Bohrs-Radians)
 Mixed Optimization -- RFO/linear search
 Update second derivatives using D2CorX and points    1    2    3
 DE= -2.73D-03 DEPred=-2.92D-03 R= 9.35D-01
 TightC=F SS=  1.41D+00  RLast= 2.99D-01 DXNew= 8.4853D-01 8.9607D-01
 Trust test= 9.35D-01 RLast= 2.99D-01 DXMaxT set to 8.49D-01
 ITU=  1  1  0
 Use linear search instead of GDIIS.
     Eigenvalues ---    0.01573   0.01584   0.01830   0.01871   0.01931
     Eigenvalues ---    0.01967   0.02005   0.02038   0.02049   0.02134
     Eigenvalues ---    0.02143   0.02149   0.02167   0.02208   0.02231
     Eigenvalues ---    0.02656   0.04876   0.04880   0.14989   0.15979
     Eigenvalues ---    0.15997   0.15999   0.16142   0.19091   0.22134
     Eigenvalues ---    0.22671   0.24085   0.24696   0.24950   0.24984
     Eigenvalues ---    0.25163   0.34825   0.34856   0.34877   0.35109
     Eigenvalues ---    0.35247   0.37981   0.39419   0.39872   0.40138
     Eigenvalues ---    0.40868   0.42350   0.42928   0.44703   0.45158
     Eigenvalues ---    0.45995   0.46548   0.46934   0.50502   1.28205
     Eigenvalues ---    1.36700
 RFO step:  Lambda=-1.56201067D-03 EMin= 1.57321191D-02
 Quartic linear search produced a step of -0.10252.
 Iteration  1 RMS(Cart)=  0.03915968 RMS(Int)=  0.00620401
 Iteration  2 RMS(Cart)=  0.01010072 RMS(Int)=  0.00024187
 Iteration  3 RMS(Cart)=  0.00025704 RMS(Int)=  0.00007215
 Iteration  4 RMS(Cart)=  0.00000014 RMS(Int)=  0.00007215
 Variable       Old X    -DE/DX   Delta X   Delta X   Delta X     New X
                                 (Linear)    (Quad)   (Total)
    R1        2.27335  -0.00384  -0.00076   0.00089   0.00013   2.27348
    R2        2.75522   0.00077  -0.00073   0.00459   0.00386   2.75908
    R3        2.69371  -0.00053   0.00081  -0.00334  -0.00253   2.69118
    R4        2.74964  -0.00166  -0.00030  -0.00218  -0.00248   2.74716
    R5        2.71058   0.00002  -0.00085   0.00386   0.00301   2.71359
    R6        2.75629  -0.00027  -0.00064   0.00201   0.00136   2.75766
    R7        2.62794  -0.00003   0.00141  -0.00447  -0.00306   2.62487
    R8        2.07440  -0.00039  -0.00019  -0.00022  -0.00041   2.07399
    R9        2.73230  -0.00044  -0.00096   0.00355   0.00260   2.73490
   R10        2.07932  -0.00019  -0.00062   0.00178   0.00116   2.08048
   R11        2.79134  -0.00181  -0.00156   0.00267   0.00110   2.79244
   R12        2.76351   0.00571  -0.00375   0.02531   0.02157   2.78508
   R13        2.69658   0.00270  -0.00056   0.00751   0.00692   2.70350
   R14        2.63528   0.00119   0.00077  -0.00056   0.00020   2.63548
   R15        2.07281  -0.00027  -0.00005  -0.00038  -0.00043   2.07238
   R16        2.70213  -0.00074  -0.00069   0.00175   0.00108   2.70321
   R17        2.08526  -0.00082  -0.00035  -0.00060  -0.00095   2.08430
   R18        2.68081   0.00290  -0.00201   0.01296   0.01098   2.69180
   R19        2.08859   0.00029  -0.00066   0.00335   0.00269   2.09127
   R20        2.27166  -0.00298  -0.00075   0.00143   0.00068   2.27234
    A1        2.08400  -0.00049   0.00025  -0.00206  -0.00179   2.08222
    A2        2.09844  -0.00069   0.00011  -0.00229  -0.00216   2.09628
    A3        2.09903   0.00120  -0.00021   0.00464   0.00443   2.10346
    A4        2.08778  -0.00042   0.00061  -0.00334  -0.00273   2.08504
    A5        2.11148   0.00000   0.00069  -0.00249  -0.00180   2.10968
    A6        2.08347   0.00042  -0.00126   0.00591   0.00466   2.08812
    A7        2.09911  -0.00083   0.00034  -0.00375  -0.00342   2.09570
    A8        2.06935   0.00038   0.00166  -0.00462  -0.00297   2.06638
    A9        2.11466   0.00045  -0.00199   0.00843   0.00644   2.12110
   A10        2.15999   0.00018  -0.00258   0.01029   0.00771   2.16770
   A11        2.07977   0.00003  -0.00017   0.00062   0.00044   2.08021
   A12        2.04327  -0.00020   0.00277  -0.01089  -0.00813   2.03514
   A13        2.02199   0.00059   0.00333  -0.01034  -0.00705   2.01494
   A14        2.07316  -0.00079   0.00089  -0.00587  -0.00503   2.06813
   A15        2.18801   0.00020  -0.00422   0.01615   0.01200   2.20001
   A16        2.09810  -0.00073  -0.00145   0.00241   0.00099   2.09908
   A17        2.12748   0.00075   0.00179  -0.00265  -0.00082   2.12666
   A18        2.05359   0.00003   0.00003   0.00055   0.00066   2.05425
   A19        2.07271   0.00006   0.00204  -0.00834  -0.00626   2.06645
   A20        2.09076  -0.00017   0.00102  -0.00370  -0.00271   2.08805
   A21        2.11940   0.00012  -0.00304   0.01219   0.00913   2.12852
   A22        2.11331   0.00069  -0.00009   0.00266   0.00262   2.11593
   A23        2.05828   0.00112   0.00034   0.00643   0.00673   2.06502
   A24        2.10832  -0.00175   0.00005  -0.00811  -0.00810   2.10021
   A25        2.20300   0.00004  -0.00553   0.02034   0.01480   2.21779
   A26        1.99766   0.00020   0.00567  -0.01751  -0.01203   1.98564
   A27        2.07827  -0.00014   0.00020  -0.00042  -0.00039   2.07787
   A28        1.92769  -0.00095   0.00851  -0.03219  -0.02354   1.90415
   A29        3.15528   0.00054   0.00134   0.02366   0.02499   3.18027
   A30        3.16962   0.00014   0.00085  -0.00025   0.00060   3.17022
   A31        3.10538   0.00502   0.00915   0.23166   0.24082   3.34619
   A32        3.14098  -0.00008  -0.00028  -0.00054  -0.00082   3.14016
    D1        3.05404   0.00034   0.00564  -0.00287   0.00276   3.05679
    D2       -0.05459   0.00012   0.00372  -0.00588  -0.00214  -0.05673
    D3       -0.02493  -0.00009   0.00156  -0.00819  -0.00665  -0.03158
    D4       -3.13355  -0.00031  -0.00036  -0.01119  -0.01155   3.13808
    D5       -3.04713  -0.00054  -0.00635  -0.00274  -0.00910  -3.05622
    D6       -0.00400   0.00004   0.00045   0.00110   0.00158  -0.00242
    D7        0.03132  -0.00010  -0.00223   0.00263   0.00040   0.03172
    D8        3.07444   0.00048   0.00457   0.00647   0.01108   3.08552
    D9        0.00573   0.00017  -0.00007   0.00773   0.00763   0.01336
   D10       -3.12392  -0.00002  -0.00103   0.00259   0.00158  -3.12235
   D11        3.11489   0.00038   0.00184   0.01053   0.01235   3.12724
   D12       -0.01476   0.00019   0.00087   0.00539   0.00630  -0.00847
   D13        0.00754  -0.00010  -0.00080  -0.00149  -0.00227   0.00527
   D14       -3.11412  -0.00021  -0.00213  -0.00193  -0.00404  -3.11816
   D15        3.13688   0.00009   0.00019   0.00369   0.00391   3.14079
   D16        0.01522  -0.00002  -0.00113   0.00325   0.00215   0.01736
[...]
 ! D15   D(15,5,6,7)           179.9604         -DE/DX =    0.0                 !
 ! D16   D(15,5,6,16)            0.5182         -DE/DX =    0.0                 !
 ! D17   D(5,6,7,8)             -0.1754         -DE/DX =    0.0                 !
 ! D18   D(5,6,7,12)           179.3841         -DE/DX =    0.0                 !
 ! D19   D(16,6,7,8)           179.2787         -DE/DX =    0.0                 !
 ! D20   D(16,6,7,12)           -1.1618         -DE/DX =    0.0                 !
 ! D21   D(6,7,8,3)             -0.3535         -DE/DX =    0.0                 !
 ! D22   D(6,7,8,9)           -177.6766         -DE/DX =    0.0                 !
 ! D23   D(12,7,8,3)          -179.8718         -DE/DX =    0.0                 !
 ! D24   D(12,7,8,9)             2.8051         -DE/DX =    0.0                 !
 ! D25   D(6,7,12,11)          176.1516         -DE/DX =    0.0                 !
 ! D26   D(8,7,12,11)           -4.3384         -DE/DX =    0.0                 !
 ! D27   D(3,8,9,10)          -176.4759         -DE/DX =    0.0                 !
 ! D28   D(3,8,9,17)             2.9784         -DE/DX =    0.0                 !
 ! D29   D(7,8,9,10)             0.7814         -DE/DX =    0.0                 !
 ! D30   D(7,8,9,17)          -179.7643         -DE/DX =    0.0                 !
 ! D31   D(8,9,10,11)           -2.2289         -DE/DX =    0.0                 !
 ! D32   D(8,9,10,18)         -179.9811         -DE/DX =    0.0                 !
 ! D33   D(17,9,10,11)         178.3271         -DE/DX =    0.0                 !
 ! D34   D(17,9,10,18)           0.575          -DE/DX =    0.0                 !
 ! D35   D(9,10,11,12)           0.2301         -DE/DX =    0.0                 !
 ! D36   D(9,10,11,19)        -177.1554         -DE/DX =    0.0                 !
 ! D37   D(18,10,11,12)        177.9412         -DE/DX =    0.0                 !
 ! D38   D(18,10,11,19)          0.5557         -DE/DX =    0.0                 !
 ! D39   D(10,11,12,7)           2.8379         -DE/DX =    0.0                 !
 ! D40   D(19,11,12,7)        -179.8755         -DE/DX =    0.0                 !
 --------------------------------------------------------------------------------
 GradGradGradGradGradGradGradGradGradGradGradGradGradGradGradGradGradGrad

                          Input orientation:                          
 ---------------------------------------------------------------------
 Center     Atomic      Atomic             Coordinates (Angstroms)
 Number     Number       Type             X           Y           Z
 ---------------------------------------------------------------------
      1          7           0        1.106526   -0.184136    0.025370
      2          6           0        2.306568   -0.135873    0.012733
      3          6           0        3.766539   -0.107897   -0.026708
      4          6           0        4.438454    1.145604   -0.010307
      5          6           0        5.872013    1.181953    0.004921
      6          6           0        6.595587   -0.007527   -0.002564
      7          6           0        5.993163   -1.317480   -0.029702
      8          6           0        4.519301   -1.350668   -0.046028
      9          6           0        3.880509   -2.628216   -0.021824
     10          6           0        4.680468   -3.770562    0.032515
     11          6           0        6.105192   -3.682891    0.016368
     12          6           0        6.892106   -2.493340   -0.048684
     13          7           0        3.100133    3.444339    0.025350
     14          6           0        3.687244    2.397402    0.009184
     15          1           0        6.374986    2.156604    0.026500
     16          1           0        7.694930    0.033444    0.022232
     17          1           0        2.786072   -2.691915   -0.036893
     18          1           0        4.185727   -4.755651    0.050805
     19          1           0        6.621970   -4.660349    0.014150
 ---------------------------------------------------------------------
                    Distance matrix (angstroms):
                    1          2          3          4          5
     1  N    0.000000
     2  C    1.201079   0.000000
     3  C    2.661615   1.460772   0.000000
     4  C    3.587649   2.487499   1.422323   0.000000
     5  C    4.957467   3.801200   2.469359   1.434101   0.000000
     6  C    5.491972   4.290966   2.830930   2.446016   1.392292
     7  C    5.016644   3.871560   2.533960   2.912778   2.502606
     8  C    3.607344   2.524949   1.453101   2.497837   2.871689
     9  C    3.697395   2.947924   2.522899   3.814860   4.299325
    10  C    5.063158   4.341285   3.775432   4.922306   5.093913
    11  C    6.101478   5.197201   4.272205   5.108140   4.870443
    12  C    6.229835   5.156412   3.931919   4.389054   3.814609
    13  N    4.140084   3.667127   3.614580   2.660180   3.578006
    14  C    3.650302   2.885093   2.506811   1.460032   2.500110
    15  H    5.765044   4.669868   3.454677   2.184865   1.096992
    16  H    6.591997   5.391030   3.931237   3.441308   2.154623
    17  H    3.018891   2.601103   2.763796   4.178232   4.952942
    18  H    5.511885   4.987487   4.667262   5.906980   6.172585
    19  H    7.103290   6.252485   5.374009   6.203018   5.890247
                    6          7          8          9         10
     6  C    0.000000
     7  C    1.442091   0.000000
     8  C    2.473233   1.474326   0.000000
     9  C    3.773597   2.486242   1.428555   0.000000
    10  C    4.222481   2.782922   2.426526   1.395652   0.000000
    11  C    3.707985   2.368511   2.821030   2.462319   1.427510
    12  C    2.503861   1.480239   2.633612   3.014736   2.555236
    13  N    4.912673   5.572035   5.001123   6.122674   7.385954
    14  C    3.773894   4.372541   3.839713   5.029428   6.247465
    15  H    2.175539   3.495454   3.968600   5.396226   6.164635
    16  H    1.100386   2.173408   3.464830   4.651471   4.853612
    17  H    4.660421   3.489206   2.191600   1.096393   2.181063
    18  H    5.324937   3.885141   3.422653   2.150444   1.102498
    19  H    4.652927   3.401778   3.921584   3.412692   2.135763
                   11         12         13         14         15
    11  C    0.000000
    12  C    1.427760   0.000000
    13  N    7.734848   7.045607   0.000000
    14  C    6.543431   5.847550   1.200432   0.000000
    15  H    5.845733   4.679214   3.518939   2.698563   0.000000
    16  H    4.042085   2.652205   5.722445   4.652958   2.500016
    17  H    3.464308   4.110850   6.144601   5.168692   6.032616
    18  H    2.199169   3.528801   8.271577   7.170521   7.250704
    19  H    1.105661   2.184685   8.836822   7.643591   6.821436
                   16         17         18         19
    16  H    0.000000
    17  H    5.614977   0.000000
    18  H    5.937234   2.495142   0.000000
    19  H    4.814872   4.311781   2.438381   0.000000
 Stoichiometry    C12H5N2(1-)
 Framework group  C1[X(C12H5N2)]
 Deg. of freedom    51
 Full point group                 C1      NOp   1
 Largest Abelian subgroup         C1      NOp   1
 Largest concise Abelian subgroup C1      NOp   1
                         Standard orientation:                         
 ---------------------------------------------------------------------
 Center     Atomic      Atomic             Coordinates (Angstroms)
 Number     Number       Type             X           Y           Z
 ---------------------------------------------------------------------
      1          7           0        1.807942    2.897884    0.009862
      2          6           0        1.334813    1.793937    0.003413
      3          6           0        0.731383    0.464009   -0.028469
      4          6           0        1.573534   -0.682045   -0.009836
      5          6           0        0.989204   -1.991507    0.012804
      6          6           0       -0.395929   -2.132495    0.010274
      7          6           0       -1.318982   -1.024902   -0.018678
      8          6           0       -0.714452    0.319570   -0.042630
      9          6           0       -1.592438    1.446255   -0.020462
     10          6           0       -2.967722    1.216295    0.039180
     11          6           0       -3.502025   -0.107422    0.030349
     12          6           0       -2.767360   -1.330085   -0.031808
     13          7           0        4.224603   -0.463664    0.016557
     14          6           0        3.026849   -0.542893    0.004493
     15          1           0        1.652421   -2.865003    0.036017
     16          1           0       -0.832169   -3.142255    0.040741
     17          1           0       -1.178795    2.461414   -0.041153
     18          1           0       -3.643779    2.087024    0.055889
     19          1           0       -4.606744   -0.153025    0.031798
 ---------------------------------------------------------------------
 Rotational constants (GHZ):      1.3309511      0.5502111      0.3893433

 **********************************************************************

            Population analysis using the SCF density.

 **********************************************************************

 Orbital symmetries:
       Occupied  (A) (A) (A) (A) (A) (A) (A) (A) (A) (A) (A) (A)
                 (A) (A) (A) (A) (A) (A) (A) (A) (A) (A) (A) (A)
                 (A) (A) (A) (A) (A) (A) (A) (A) (A) (A) (A) (A)
                 (A) (A) (A) (A) (A) (A) (A) (A) (A) (A)
       Virtual   (A) (A) (A) (A) (A) (A) (A) (A) (A) (A) (A) (A)
                 (A) (A) (A) (A) (A) (A) (A) (A) (A) (A) (A) (A)
                 (A) (A) (A) (A) (A)
 The electronic state is 1-A.
 Alpha  occ. eigenvalues --  -13.99945 -13.99029  -9.91675  -9.90964  -9.90288
 Alpha  occ. eigenvalues --   -9.89424  -9.87288  -9.86438  -9.86329  -9.83591
 Alpha  occ. eigenvalues --   -9.82847  -9.82737  -9.78578  -9.66253  -0.73299
 Alpha  occ. eigenvalues --   -0.72194  -0.67151  -0.61224  -0.58241  -0.54315
 Alpha  occ. eigenvalues --   -0.49717  -0.45840  -0.41991  -0.39539  -0.33815
 Alpha  occ. eigenvalues --   -0.32902  -0.30014  -0.27401  -0.24753  -0.22939
 Alpha  occ. eigenvalues --   -0.21726  -0.19901  -0.18290  -0.16593  -0.16179
 Alpha  occ. eigenvalues --   -0.16006  -0.15046  -0.14503  -0.13720  -0.13218
 Alpha  occ. eigenvalues --   -0.10774  -0.09062  -0.06184  -0.02740   0.02554
 Alpha  occ. eigenvalues --    0.11557
 Alpha virt. eigenvalues --    0.15433   0.21166   0.24873   0.26201   0.27645
 Alpha virt. eigenvalues --    0.29390   0.31767   0.38392   0.41147   0.46003
 Alpha virt. eigenvalues --    0.47007   0.50922   0.52833   0.56453   0.58342
 Alpha virt. eigenvalues --    0.60324   0.61841   0.62568   0.67400   0.70019
 Alpha virt. eigenvalues --    0.70553   0.75525   0.78774   0.82837   0.85158
 Alpha virt. eigenvalues --    0.92555   0.93901   1.03757   1.08311
          Condensed to atoms (all electrons):
               1          2          3          4          5          6
     1  N    6.584719   0.657748  -0.010548  -0.000075  -0.000001   0.000000
     2  C    0.657748   4.932818   0.419226  -0.030936   0.000821   0.000006
     3  C   -0.010548   0.419226   4.788093   0.489255  -0.029422  -0.009208
     4  C   -0.000075  -0.030936   0.489255   4.771298   0.469140  -0.028641
     5  C   -0.000001   0.000821  -0.029422   0.469140   4.845203   0.516097
     6  C    0.000000   0.000006  -0.009208  -0.028641   0.516097   4.838968
     7  C   -0.000001   0.000661  -0.021545  -0.007773  -0.025129   0.462964
     8  C   -0.000061  -0.025969   0.453610  -0.027182  -0.007493  -0.033355
     9  C   -0.000153  -0.004366  -0.029247   0.000668   0.000038   0.000853
    10  C    0.000001   0.000019   0.000812  -0.000007   0.000000   0.000014
    11  C    0.000000   0.000000   0.000043   0.000001  -0.000016   0.001380
    12  C    0.000000  -0.000004   0.000544   0.000017   0.000748  -0.034440
    13  N   -0.000011  -0.000035  -0.000063  -0.010762  -0.000131  -0.000001
    14  C   -0.000034  -0.002633  -0.028359   0.421334  -0.028474   0.000858
    15  H    0.000000  -0.000018   0.001201  -0.025753   0.388016  -0.024119
    16  H    0.000000   0.000001   0.000026   0.001426  -0.027077   0.383615
    17  H   -0.000176   0.001462  -0.003648   0.000014  -0.000001  -0.000020
    18  H    0.000000   0.000000  -0.000017   0.000000   0.000000   0.000001
    19  H    0.000000   0.000000   0.000001   0.000000   0.000000  -0.000016
               7          8          9         10         11         12
     1  N   -0.000001  -0.000061  -0.000153   0.000001   0.000000   0.000000
     2  C    0.000661  -0.025969  -0.004366   0.000019   0.000000  -0.000004
     3  C   -0.021545   0.453610  -0.029247   0.000812   0.000043   0.000544
     4  C   -0.007773  -0.027182   0.000668  -0.000007   0.000001   0.000017
     5  C   -0.025129  -0.007493   0.000038   0.000000  -0.000016   0.000748
     6  C    0.462964  -0.033355   0.000853   0.000014   0.001380  -0.034440
     7  C    4.902059   0.428921  -0.029986  -0.013539  -0.029851   0.396671
     8  C    0.428921   4.829196   0.479086  -0.029121  -0.012076  -0.017820
     9  C   -0.029986   0.479086   4.870294   0.514435  -0.029970  -0.006118
    10  C   -0.013539  -0.029121   0.514435   4.852808   0.470302  -0.018450
    11  C   -0.029851  -0.012076  -0.029970   0.470302   4.937906   0.451549
    12  C    0.396671  -0.017820  -0.006118  -0.018450   0.451549   5.478090
    13  N    0.000000  -0.000001   0.000000   0.000000   0.000000   0.000000
    14  C    0.000011   0.000741  -0.000005   0.000000   0.000000   0.000000
    15  H    0.001232   0.000009   0.000001   0.000000   0.000000  -0.000017
    16  H   -0.025501   0.001425  -0.000016   0.000000   0.000032  -0.001550
    17  H    0.001136  -0.025468   0.387187  -0.024646   0.001251  -0.000003
    18  H    0.000097   0.001491  -0.028366   0.380152  -0.023757   0.001086
    19  H    0.002277   0.000008   0.001461  -0.035611   0.379748  -0.032443
              13         14         15         16         17         18
     1  N   -0.000011  -0.000034   0.000000   0.000000  -0.000176   0.000000
     2  C   -0.000035  -0.002633  -0.000018   0.000001   0.001462   0.000000
     3  C   -0.000063  -0.028359   0.001201   0.000026  -0.003648  -0.000017
     4  C   -0.010762   0.421334  -0.025753   0.001426   0.000014   0.000000
     5  C   -0.000131  -0.028474   0.388016  -0.027077  -0.000001   0.000000
     6  C   -0.000001   0.000858  -0.024119   0.383615  -0.000020   0.000001
     7  C    0.000000   0.000011   0.001232  -0.025501   0.001136   0.000097
     8  C   -0.000001   0.000741   0.000009   0.001425  -0.025468   0.001491
     9  C    0.000000  -0.000005   0.000001  -0.000016   0.387187  -0.028366
    10  C    0.000000   0.000000   0.000000   0.000000  -0.024646   0.380152
    11  C    0.000000   0.000000   0.000000   0.000032   0.001251  -0.023757
    12  C    0.000000   0.000000  -0.000017  -0.001550  -0.000003   0.001086
    13  N    6.580912   0.659635   0.000057   0.000000   0.000000   0.000000
    14  C    0.659635   4.929971  -0.003206  -0.000017   0.000000   0.000000
    15  H    0.000057  -0.003206   0.606655  -0.003818   0.000000   0.000000
    16  H    0.000000  -0.000017  -0.003818   0.602805   0.000000   0.000000
    17  H    0.000000   0.000000   0.000000   0.000000   0.618713  -0.003779
    18  H    0.000000   0.000000   0.000000   0.000000  -0.003779   0.640287
    19  H    0.000000   0.000000   0.000000  -0.000003  -0.000040  -0.003707
              19
     1  N    0.000000
     2  C    0.000000
     3  C    0.000001
     4  C    0.000000
     5  C    0.000000
     6  C   -0.000016
     7  C    0.002277
     8  C    0.000008
     9  C    0.001461
    10  C   -0.035611
    11  C    0.379748
    12  C   -0.032443
    13  N    0.000000
    14  C    0.000000
    15  H    0.000000
    16  H   -0.000003
    17  H   -0.000040
    18  H   -0.003707
    19  H    0.675579
 Mulliken charges:
               1
     1  N   -0.231406
     2  C    0.051200
     3  C   -0.020756
     4  C   -0.022023
     5  C   -0.102321
     6  C   -0.074958
     7  C   -0.042703
     8  C   -0.015940
     9  C   -0.125795
    10  C   -0.097169
    11  C   -0.146540
    12  C   -0.217859
    13  N   -0.229600
    14  C    0.050180
    15  H    0.059760
    16  H    0.068652
    17  H    0.048016
    18  H    0.036514
    19  H    0.012747
 Sum of Mulliken charges =  -1.00000
 Mulliken charges with hydrogens summed into heavy atoms:
               1
     1  N   -0.231406
     2  C    0.051200
     3  C   -0.020756
     4  C   -0.022023
     5  C   -0.042561
     6  C   -0.006306
     7  C   -0.042703
     8  C   -0.015940
     9  C   -0.077778
    10  C   -0.060655
    11  C   -0.133793
    12  C   -0.217859
    13  N   -0.229600
    14  C    0.050180
 Electronic spatial extent (au):  <R**2>=           2652.4771
 Charge=             -1.0000 electrons
 Dipole moment (field-independent basis, Debye):
    X=              1.1890    Y=             -0.2210    Z=              0.1071  Tot=              1.2141
 Quadrupole moment (field-independent basis, Debye-Ang):
   XX=           -123.1426   YY=            -90.2578   ZZ=            -74.2197
   XY=            -13.6550   XZ=             -0.4702   YZ=             -0.4117
 Traceless Quadrupole moment (field-independent basis, Debye-Ang):
   XX=            -27.2693   YY=              5.6156   ZZ=             21.6537
   XY=            -13.6550   XZ=             -0.4702   YZ=             -0.4117
 Octapole moment (field-independent basis, Debye-Ang**2):
  XXX=            -31.5925  YYY=            -27.5390  ZZZ=              0.1114  XYY=             -0.1122
  XXY=             24.1089  XXZ=              0.4102  XZZ=              6.8377  YZZ=              2.3431
  YYZ=              0.6515  XYZ=              0.7429
 Hexadecapole moment (field-independent basis, Debye-Ang**3):
 XXXX=          -3083.7676 YYYY=          -1137.9617 ZZZZ=            -58.7140 XXXY=            -73.0370
 XXXZ=             -5.4198 YYYX=           -121.2424 YYYZ=             -2.6694 ZZZX=              0.1932
 ZZZY=             -0.0537 XXYY=           -657.5187 XXZZ=           -400.6777 YYZZ=           -182.3776
 XXYZ=             -2.5832 YYXZ=             -2.0665 ZZXY=              3.8082
 N-N= 7.030602940901D+02 E-N=-2.728200895066D+03  KE= 5.546877457653D+02
 1\1\GINC-N051\FOpt\RB3LYP\STO-3G\C12H5N2(1-)\R2532\15-Jun-2021\0\\#N B
 3LYP/STO-3G OPT\\1Naph\\-1,1\N,1.1065261348,-0.1841360647,0.0253697138
 \C,2.3065683266,-0.1358731839,0.0127334534\C,3.7665393364,-0.107897151
 3,-0.0267075757\C,4.4384537905,1.1456040326,-0.0103066373\C,5.87201314
 66,1.1819529172,0.0049213802\C,6.5955867982,-0.0075267209,-0.002563605
 8\C,5.9931628903,-1.3174796109,-0.0297019177\C,4.5193011623,-1.3506683
 611,-0.0460284331\C,3.8805087251,-2.6282160157,-0.0218239269\C,4.68046
 84161,-3.7705623241,0.0325145013\C,6.1051921648,-3.6828914367,0.016367
 8725\C,6.8921063292,-2.4933398601,-0.0486836315\N,3.1001328696,3.44433
 89715,0.02535018\C,3.6872440489,2.3974019053,0.0091837633\H,6.37498636
 64,2.1566035354,0.0265002711\H,7.6949302673,0.0334435283,0.022232213\H
 ,2.7860718615,-2.6919148663,-0.0368926167\H,4.1857274443,-4.7556505699
 ,0.0508052369\H,6.621969921,-4.6603487249,0.0141497591\\Version=ES64L-
 G09RevD.01\State=1-A\HF=-562.5056566\RMSD=5.843e-09\RMSF=1.825e-05\Dip
 ole=-0.1226876,0.4595939,0.0432178\Quadrupole=-8.2416871,-7.8516488,16
 .0933359,15.8874487,0.5691971,-0.2903603\PG=C01 [X(C12H5N2)]\\@


 ALMOST ANYTHING IS EASIER TO GET INTO THAN OUT OF.

                         -- AGNES ALLEN'S LAW FROM
                PAUL DICKSON'S "THE OFFICIAL RULES"
 Job cpu time:       0 days  0 hours  5 minutes 18.7 seconds.
 File lengths (MBytes):  RWF=      5 Int=      0 D2E=      0 Chk=      2 Scr=      1
 Normal termination of Gaussian 09 at Tue Jun 15 11:18:57 2021.
