 Entering Gaussian System, Link 0=/usr/local/apps//g09/g09
 Input=8.com
 Output=8.out
 Initial command:
 /usr/local/apps//g09/l1.exe "/tmp/bnp.472657.sequoia/Gau-26392.inp" -scrdir="/tmp/bnp.472657.sequoia/"
 Entering Link 1 = /usr/local/apps//g09/l1.exe PID=     26403.
  
 Copyright (c) 1988,1990,1992,1993,1995,1998,2003,2009,2013,
            Gaussian, Inc.  All Rights Reserved.
  
 This is part of the Gaussian(R) 09 program.  It is based on
 the Gaussian(R) 03 system (copyright 2003, Gaussian, Inc.),
 the Gaussian(R) 98 system (copyright 1998, Gaussian, Inc.),
 the Gaussian(R) 94 system (copyright 1995, Gaussian, Inc.),
 the Gaussian 92(TM) system (copyright 1992, Gaussian, Inc.),
 the Gaussian 90(TM) system (copyright 1990, Gaussian, Inc.),
 the Gaussian 88(TM) system (copyright 1988, Gaussian, Inc.),
 the Gaussian 86(TM) system (copyright 1986, Carnegie Mellon
 University), and the Gaussian 82(TM) system (copyright 1983,
 Carnegie Mellon University). Gaussian is a federally registered
 trademark of Gaussian, Inc.
  
 This software contains proprietary and confidential information,
 including trade secrets, belonging to Gaussian, Inc.
  
 This software is provided under written license and may be
 used, copied, transmitted, or stored only in accord with that
 written license.
  
 The following legend is applicable only to US Government
 contracts under FAR:
  
                    RESTRICTED RIGHTS LEGEND
  
 Use, reproduction and disclosure by the US Government is
 subject to restrictions as set forth in subparagraphs (a)
 and (c) of the Commercial Computer Software - Restricted
 Rights clause in FAR 52.227-19.
  
 Gaussian, Inc.
 340 Quinnipiac St., Bldg. 40, Wallingford CT 06492
  
  
 ---------------------------------------------------------------
 Warning -- This program may not be used in any manner that
 competes with the business of Gaussian, Inc. or will provide
 assistance to any competitor of Gaussian, Inc.  The licensee
 of this program is prohibited from giving any competitor of
 Gaussian, Inc. access to this program.  By using this program,
 the user acknowledges that Gaussian, Inc. is engaged in the
 business of creating and licensing software in the field of
 computational chemistry and represents and warrants to the
 licensee that it is not a competitor of Gaussian, Inc. and that
 it will not use this program in any manner prohibited above.
 ---------------------------------------------------------------
  

 Cite this work as:
 Gaussian 09, Revision D.01,
 M. J. Frisch, G. W. Trucks, H. B. Schlegel, G. E. Scuseria, 
 M. A. Robb, J. R. Cheeseman, G. Scalmani, V. Barone, B. Mennucci, 
 G. A. Petersson, H. Nakatsuji, M. Caricato, X. Li, H. P. Hratchian, 
 A. F. Izmaylov, J. Bloino, G. Zheng, J. L. Sonnenberg, M. Hada, 
 M. Ehara, K. Toyota, R. Fukuda, J. Hasegawa, M. Ishida, T. Nakajima, 
 Y. Honda, O. Kitao, H. Nakai, T. Vreven, J. A. Montgomery, Jr., 
 J. E. Peralta, F. Ogliaro, M. Bearpark, J. J. Heyd, E. Brothers, 
 K. N. Kudin, V. N. Staroverov, T. Keith, R. Kobayashi, J. Normand, 
 K. Raghavachari, A. Rendell, J. C. Burant, S. S. Iyengar, J. Tomasi, 
 M. Cossi, N. Rega, J. M. Millam, M. Klene, J. E. Knox, J. B. Cross, 
 V. Bakken, C. Adamo, J. Jaramillo, R. Gomperts, R. E. Stratmann, 
 O. Yazyev, A. J. Austin, R. Cammi, C. Pomelli, J. W. Ochterski, 
 R. L. Martin, K. Morokuma, V. G. Zakrzewski, G. A. Voth, 
 P. Salvador, J. J. Dannenberg, S. Dapprich, A. D. Daniels, 
 O. Farkas, J. B. Foresman, J. V. Ortiz, J. Cioslowski, 
 and D. J. Fox, Gaussian, Inc., Wallingford CT, 2013.
 
 ******************************************
 Gaussian 09:  ES64L-G09RevD.01 24-Apr-2013
                15-Jun-2021 
 ******************************************
 -------------------
 #N B3LYP/STO-3G OPT
 -------------------
 1/14=-1,18=20,19=15,26=3,38=1/1,3;
 2/9=110,12=2,17=6,18=5,40=1/2;
 3/6=3,11=2,16=1,25=1,30=1,71=1,74=-5/1,2,3;
 4//1;
 5/5=2,38=5/2;
 6/7=2,8=2,9=2,10=2,28=1/1;
 7//1,2,3,16;
 1/14=-1,18=20,19=15,26=3/3(2);
 2/9=110/2;
 99//99;
 2/9=110/2;
 3/6=3,11=2,16=1,25=1,30=1,71=1,74=-5/1,2,3;
 4/5=5,16=3,69=1/1;
 5/5=2,38=5/2;
 7//1,2,3,16;
 1/14=-1,18=20,19=15,26=3/3(-5);
 2/9=110/2;
 6/7=2,8=2,9=2,10=2,19=2,28=1/1;
 99/9=1/99;
 -----
 2Naph
 -----
 Symbolic Z-matrix:
 Charge = -1 Multiplicity = 1
 N                     1.21225  -0.1674   -0.06011 
 C                     2.36888  -0.08674  -0.06085 
 C                     4.55714  -1.18399  -0.06241 
 C                     3.8023    0.00108  -0.06176 
 C                     4.45871   1.23878  -0.06141 
 C                     5.86148   1.28524  -0.06231 
 C                     6.62225   0.10731  -0.06302 
 C                     5.95937  -1.13936  -0.06298 
 C                     6.71573  -2.31638  -0.06351 
 C                     8.10851  -2.27243  -0.06403 
 C                     8.76479  -1.04456  -0.06416 
 C                     8.02607   0.13946  -0.06379 
 N                     3.17856   3.4954   -0.05874 
 C                     3.73541   2.47829  -0.05996 
 H                     4.04989  -2.14877  -0.06268 
 H                     6.36667   2.25196  -0.06233 
 H                     8.67775  -3.198    -0.06435 
 H                     9.85174  -1.00601  -0.06462 
 H                     8.55732   1.08946  -0.06382 
 

 GradGradGradGradGradGradGradGradGradGradGradGradGradGradGradGradGradGrad
 Berny optimization.
 Initialization pass.
                           ----------------------------
                           !    Initial Parameters    !
                           ! (Angstroms and Degrees)  !
 --------------------------                            --------------------------
 ! Name  Definition              Value          Derivative Info.                !
 --------------------------------------------------------------------------------
 ! R1    R(1,2)                  1.1594         estimate D2E/DX2                !
 ! R2    R(2,4)                  1.4361         estimate D2E/DX2                !
 ! R3    R(3,4)                  1.4051         estimate D2E/DX2                !
 ! R4    R(3,8)                  1.4029         estimate D2E/DX2                !
 ! R5    R(3,15)                 1.09           estimate D2E/DX2                !
 ! R6    R(4,5)                  1.401          estimate D2E/DX2                !
 ! R7    R(5,6)                  1.4035         estimate D2E/DX2                !
 ! R8    R(5,14)                 1.4351         estimate D2E/DX2                !
 ! R9    R(6,7)                  1.4022         estimate D2E/DX2                !
 ! R10   R(6,16)                 1.0908         estimate D2E/DX2                !
 ! R11   R(7,8)                  1.4119         estimate D2E/DX2                !
 ! R12   R(7,12)                 1.4042         estimate D2E/DX2                !
 ! R13   R(8,9)                  1.3991         estimate D2E/DX2                !
 ! R14   R(9,10)                 1.3935         estimate D2E/DX2                !
 ! R15   R(10,11)                1.3923         estimate D2E/DX2                !
 ! R16   R(10,17)                1.0866         estimate D2E/DX2                !
 ! R17   R(11,12)                1.3956         estimate D2E/DX2                !
 ! R18   R(11,18)                1.0876         estimate D2E/DX2                !
 ! R19   R(12,19)                1.0885         estimate D2E/DX2                !
 ! R20   R(13,14)                1.1596         estimate D2E/DX2                !
 ! A1    A(4,3,8)              120.6724         estimate D2E/DX2                !
 ! A2    A(4,3,15)             119.7706         estimate D2E/DX2                !
 ! A3    A(8,3,15)             119.5569         estimate D2E/DX2                !
 ! A4    A(2,4,3)              118.9895         estimate D2E/DX2                !
 ! A5    A(2,4,5)              121.445          estimate D2E/DX2                !
 ! A6    A(3,4,5)              119.5655         estimate D2E/DX2                !
 ! A7    A(4,5,6)              119.836          estimate D2E/DX2                !
 ! A8    A(4,5,14)             121.7958         estimate D2E/DX2                !
 ! A9    A(6,5,14)             118.3682         estimate D2E/DX2                !
 ! A10   A(5,6,7)              120.9596         estimate D2E/DX2                !
 ! A11   A(5,6,16)             119.4877         estimate D2E/DX2                !
 ! A12   A(7,6,16)             119.5527         estimate D2E/DX2                !
 ! A13   A(6,7,8)              119.143          estimate D2E/DX2                !
 ! A14   A(6,7,12)             121.5446         estimate D2E/DX2                !
 ! A15   A(8,7,12)             119.3124         estimate D2E/DX2                !
 ! A16   A(3,8,7)              119.8235         estimate D2E/DX2                !
 ! A17   A(3,8,9)              120.9021         estimate D2E/DX2                !
 ! A18   A(7,8,9)              119.2745         estimate D2E/DX2                !
 ! A19   A(8,9,10)             120.9176         estimate D2E/DX2                !
 ! A20   A(9,10,11)            119.9313         estimate D2E/DX2                !
 ! A21   A(9,10,17)            119.7848         estimate D2E/DX2                !
 ! A22   A(11,10,17)           120.2839         estimate D2E/DX2                !
 ! A23   A(10,11,12)           119.9157         estimate D2E/DX2                !
 ! A24   A(10,11,18)           120.1551         estimate D2E/DX2                !
 ! A25   A(12,11,18)           119.9292         estimate D2E/DX2                !
 ! A26   A(7,12,11)            120.6484         estimate D2E/DX2                !
 ! A27   A(7,12,19)            120.5263         estimate D2E/DX2                !
 ! A28   A(11,12,19)           118.8252         estimate D2E/DX2                !
 ! A29   L(1,2,4,13,-1)        180.4833         estimate D2E/DX2                !
 ! A30   L(5,14,13,1,-1)       181.5652         estimate D2E/DX2                !
 ! A31   L(1,2,4,13,-2)        179.9993         estimate D2E/DX2                !
 ! A32   L(5,14,13,1,-2)       179.9971         estimate D2E/DX2                !
 ! D1    D(8,3,4,2)           -179.9845         estimate D2E/DX2                !
 ! D2    D(8,3,4,5)             -0.0128         estimate D2E/DX2                !
 ! D3    D(15,3,4,2)             0.028          estimate D2E/DX2                !
 ! D4    D(15,3,4,5)           179.9998         estimate D2E/DX2                !
 ! D5    D(4,3,8,7)             -0.0055         estimate D2E/DX2                !
 ! D6    D(4,3,8,9)            179.9944         estimate D2E/DX2                !
 ! D7    D(15,3,8,7)           179.982          estimate D2E/DX2                !
 ! D8    D(15,3,8,9)            -0.0182         estimate D2E/DX2                !
 ! D9    D(2,4,5,6)            179.9993         estimate D2E/DX2                !
 ! D10   D(2,4,5,14)             0.0079         estimate D2E/DX2                !
 ! D11   D(3,4,5,6)              0.0282         estimate D2E/DX2                !
 ! D12   D(3,4,5,14)          -179.9631         estimate D2E/DX2                !
 ! D13   D(4,5,6,7)             -0.0258         estimate D2E/DX2                !
 ! D14   D(4,5,6,16)           179.982          estimate D2E/DX2                !
 ! D15   D(14,5,6,7)           179.9658         estimate D2E/DX2                !
 ! D16   D(14,5,6,16)           -0.0264         estimate D2E/DX2                !
 ! D17   D(5,6,7,8)              0.0074         estimate D2E/DX2                !
 ! D18   D(5,6,7,12)          -179.9936         estimate D2E/DX2                !
 ! D19   D(16,6,7,8)           179.9996         estimate D2E/DX2                !
 ! D20   D(16,6,7,12)           -0.0014         estimate D2E/DX2                !
 ! D21   D(6,7,8,3)              0.0082         estimate D2E/DX2                !
 ! D22   D(6,7,8,9)           -179.9917         estimate D2E/DX2                !
 ! D23   D(12,7,8,3)          -179.9908         estimate D2E/DX2                !
 ! D24   D(12,7,8,9)             0.0093         estimate D2E/DX2                !
 ! D25   D(6,7,12,11)          179.9843         estimate D2E/DX2                !
 ! D26   D(6,7,12,19)            0.0019         estimate D2E/DX2                !
 ! D27   D(8,7,12,11)           -0.0167         estimate D2E/DX2                !
 ! D28   D(8,7,12,19)         -179.9991         estimate D2E/DX2                !
 ! D29   D(3,8,9,10)          -179.9978         estimate D2E/DX2                !
 ! D30   D(7,8,9,10)             0.0021         estimate D2E/DX2                !
 ! D31   D(8,9,10,11)           -0.0064         estimate D2E/DX2                !
 ! D32   D(8,9,10,17)          179.9947         estimate D2E/DX2                !
 ! D33   D(9,10,11,12)          -0.001          estimate D2E/DX2                !
 ! D34   D(9,10,11,18)        -179.9967         estimate D2E/DX2                !
 ! D35   D(17,10,11,12)        179.9979         estimate D2E/DX2                !
 ! D36   D(17,10,11,18)          0.0023         estimate D2E/DX2                !
 ! D37   D(10,11,12,7)           0.0126         estimate D2E/DX2                !
 ! D38   D(10,11,12,19)        179.9952         estimate D2E/DX2                !
 ! D39   D(18,11,12,7)        -179.9917         estimate D2E/DX2                !
 ! D40   D(18,11,12,19)         -0.0091         estimate D2E/DX2                !
 --------------------------------------------------------------------------------
 Trust Radius=3.00D-01 FncErr=1.00D-07 GrdErr=1.00D-06
 Number of steps in this run=    102 maximum allowed number of steps=    114.
 GradGradGradGradGradGradGradGradGradGradGradGradGradGradGradGradGradGrad

                          Input orientation:                          
 ---------------------------------------------------------------------
 Center     Atomic      Atomic             Coordinates (Angstroms)
 Number     Number       Type             X           Y           Z
 ---------------------------------------------------------------------
      1          7           0        1.212250   -0.167400   -0.060110
      2          6           0        2.368880   -0.086740   -0.060850
      3          6           0        4.557140   -1.183990   -0.062410
      4          6           0        3.802300    0.001080   -0.061760
      5          6           0        4.458710    1.238780   -0.061410
      6          6           0        5.861480    1.285240   -0.062310
      7          6           0        6.622250    0.107310   -0.063020
      8          6           0        5.959370   -1.139360   -0.062980
      9          6           0        6.715730   -2.316380   -0.063510
     10          6           0        8.108510   -2.272430   -0.064030
     11          6           0        8.764790   -1.044560   -0.064160
     12          6           0        8.026070    0.139460   -0.063790
     13          7           0        3.178560    3.495400   -0.058740
     14          6           0        3.735410    2.478290   -0.059960
     15          1           0        4.049890   -2.148770   -0.062680
     16          1           0        6.366670    2.251960   -0.062330
     17          1           0        8.677750   -3.198000   -0.064350
     18          1           0        9.851740   -1.006010   -0.064620
     19          1           0        8.557320    1.089460   -0.063820
 ---------------------------------------------------------------------
                    Distance matrix (angstroms):
                    1          2          3          4          5
     1  N    0.000000
     2  C    1.159439   0.000000
     3  C    3.495962   2.447946   0.000000
     4  C    2.595524   1.436108   1.405053   0.000000
     5  C    3.537916   2.474751   2.424769   1.400991   0.000000
     6  C    4.870884   3.752411   2.792561   2.426786   1.403539
     7  C    5.416971   4.257795   2.435598   2.821950   2.441543
     8  C    4.845602   3.741608   1.402940   2.439991   2.812034
     9  C    5.908165   4.885326   2.437585   3.722727   4.211093
    10  C    7.210379   6.141710   3.714422   4.869527   5.064548
    11  C    7.603308   6.467232   4.209960   5.071457   4.874010
    12  C    6.820727   5.661711   3.712815   4.226037   3.732903
    13  N    4.157220   3.672508   4.878236   3.549554   2.594441
    14  C    3.655956   2.906335   3.753337   2.478114   1.435113
    15  H    3.460930   2.660407   1.090001   2.164060   3.412130
    16  H    5.693975   4.631614   3.883317   3.412104   2.160288
    17  H    8.057186   7.034330   4.586466   5.831306   6.122526
    18  H    8.680096   7.539116   5.297591   6.132696   5.841564
    19  H    7.451830   6.299226   4.601089   4.877990   4.101330
                    6          7          8          9         10
     6  C    0.000000
     7  C    1.402245   0.000000
     8  C    2.426575   1.411948   0.000000
     9  C    3.701542   2.425492   1.399091   0.000000
    10  C    4.207869   2.805732   2.429537   1.393473   0.000000
    11  C    3.722523   2.432547   2.807022   2.411674   1.392253
    12  C    2.449135   1.404188   2.430356   2.783548   2.413299
    13  N    3.476044   4.830960   5.404991   6.803557   7.587641
    14  C    2.437939   3.735693   4.246575   5.645457   6.457040
    15  H    3.882561   3.421540   2.159866   2.671104   4.060504
    16  H    1.090763   2.159825   3.415691   4.581656   4.848104
    17  H    5.294414   3.892320   3.409925   2.150994   1.086607
    18  H    4.601305   3.416005   3.894654   3.398769   2.154686
    19  H    2.702940   2.170050   3.423008   3.871847   3.391716
                   11         12         13         14         15
    11  C    0.000000
    12  C    1.395568   0.000000
    13  N    7.198419   5.895822   0.000000
    14  C    6.140452   4.886707   1.159567   0.000000
    15  H    4.842475   4.587593   5.711032   4.637735   0.000000
    16  H    4.076521   2.686311   3.422017   2.640977   4.973318
    17  H    2.155198   3.400489   8.662720   7.526421   4.745311
    18  H    1.087633   2.155266   8.049476   7.039166   5.913321
    19  H    2.144081   1.088451   5.892337   5.017936   5.550050
                   16         17         18         19
    16  H    0.000000
    17  H    5.919726   0.000000
    18  H    4.770753   2.486579   0.000000
    19  H    2.479991   4.289151   2.463030   0.000000
 Stoichiometry    C12H5N2(1-)
 Framework group  C1[X(C12H5N2)]
 Deg. of freedom    51
 Full point group                 C1      NOp   1
 Largest Abelian subgroup         C1      NOp   1
 Largest concise Abelian subgroup C1      NOp   1
                         Standard orientation:                         
 ---------------------------------------------------------------------
 Center     Atomic      Atomic             Coordinates (Angstroms)
 Number     Number       Type             X           Y           Z
 ---------------------------------------------------------------------
      1          7           0        3.545865   -2.040374   -0.000034
      2          6           0        2.552220   -1.442905    0.000163
      3          6           0        0.104333   -1.425876    0.000138
      4          6           0        1.315271   -0.713273    0.000394
      5          6           0        1.293017    0.687541    0.000268
      6          6           0        0.064575    1.366402    0.000486
      7          6           0       -1.148401    0.662854    0.000290
      8          6           0       -1.124460   -0.748891    0.000026
      9          6           0       -2.333093   -1.453633   -0.000348
     10          6           0       -3.553777   -0.781548   -0.000505
     11          6           0       -3.580383    0.610451   -0.000156
     12          6           0       -2.384281    1.329445    0.000372
     13          7           0        3.458846    2.115935   -0.000755
     14          6           0        2.500601    1.462972   -0.000267
     15          1           0        0.117745   -2.515795    0.000231
     16          1           0        0.053880    2.457113    0.000685
     17          1           0       -4.481460   -1.347338   -0.000883
     18          1           0       -4.531095    1.138745   -0.000223
     19          1           0       -2.425788    2.417105    0.000559
 ---------------------------------------------------------------------
 Rotational constants (GHZ):      1.5693426      0.4795224      0.3672936
 Standard basis: STO-3G (5D, 7F)
 There are    75 symmetry adapted cartesian basis functions of A   symmetry.
 There are    75 symmetry adapted basis functions of A   symmetry.
    75 basis functions,   225 primitive gaussians,    75 cartesian basis functions
    46 alpha electrons       46 beta electrons
       nuclear repulsion energy       707.6833044057 Hartrees.
 NAtoms=   19 NActive=   19 NUniq=   19 SFac= 1.00D+00 NAtFMM=   60 NAOKFM=F Big=F
 Integral buffers will be    131072 words long.
 Raffenetti 2 integral format.
 Two-electron integral symmetry is turned on.
 One-electron integrals computed using PRISM.
 NBasis=    75 RedAO= T EigKep=  1.54D-01  NBF=    75
 NBsUse=    75 1.00D-06 EigRej= -1.00D+00 NBFU=    75
 ExpMin= 1.69D-01 ExpMax= 9.91D+01 ExpMxC= 9.91D+01 IAcc=1 IRadAn=         1 AccDes= 0.00D+00
 Harris functional with IExCor=  402 and IRadAn=       1 diagonalized for initial guess.
 HarFok:  IExCor=  402 AccDes= 0.00D+00 IRadAn=         1 IDoV= 1 UseB2=F ITyADJ=14
 ICtDFT=  3500011 ScaDFX=  1.000000  1.000000  1.000000  1.000000
 FoFCou: FMM=F IPFlag=           0 FMFlag=      100000 FMFlg1=           0
         NFxFlg=           0 DoJE=T BraDBF=F KetDBF=T FulRan=T
         wScrn=  0.000000 ICntrl=     500 IOpCl=  0 I1Cent=   200000004 NGrid=           0
         NMat0=    1 NMatS0=      1 NMatT0=    0 NMatD0=    1 NMtDS0=    0 NMtDT0=    0
 Petite list used in FoFCou.
 Keep R1 ints in memory in canonical form, NReq=4993994.
 Requested convergence on RMS density matrix=1.00D-08 within 128 cycles.
 Requested convergence on MAX density matrix=1.00D-06.
 Requested convergence on             energy=1.00D-06.
 No special actions if energy rises.
 Integral accuracy reduced to 1.0D-05 until final iterations.
 EnCoef did     5 forward-backward iterations
 Initial convergence to 1.0D-05 achieved.  Increase integral accuracy.
 SCF Done:  E(RB3LYP) =  -562.470295808     A.U. after   33 cycles
            NFock= 33  Conv=0.63D-08     -V/T= 2.0128

 **********************************************************************

            Population analysis using the SCF density.

 **********************************************************************

 Orbital symmetries:
       Occupied  (A) (A) (A) (A) (A) (A) (A) (A) (A) (A) (A) (A)
                 (A) (A) (A) (A) (A) (A) (A) (A) (A) (A) (A) (A)
                 (A) (A) (A) (A) (A) (A) (A) (A) (A) (A) (A) (A)
                 (A) (A) (A) (A) (A) (A) (A) (A) (A) (A)
       Virtual   (A) (A) (A) (A) (A) (A) (A) (A) (A) (A) (A) (A)
                 (A) (A) (A) (A) (A) (A) (A) (A) (A) (A) (A) (A)
                 (A) (A) (A) (A) (A)
 The electronic state is 1-A.
 Alpha  occ. eigenvalues --  -14.00339 -13.99376  -9.91691  -9.90879  -9.90670
 Alpha  occ. eigenvalues --   -9.90010  -9.88098  -9.87623  -9.85838  -9.83496
 Alpha  occ. eigenvalues --   -9.82906  -9.82520  -9.78729  -9.63179  -0.75378
 Alpha  occ. eigenvalues --   -0.74383  -0.68940  -0.62820  -0.58801  -0.55931
 Alpha  occ. eigenvalues --   -0.50714  -0.45437  -0.44195  -0.39911  -0.34807
 Alpha  occ. eigenvalues --   -0.33813  -0.30874  -0.26718  -0.25993  -0.23621
 Alpha  occ. eigenvalues --   -0.23213  -0.21414  -0.18783  -0.18100  -0.16687
 Alpha  occ. eigenvalues --   -0.16456  -0.15928  -0.15790  -0.15264  -0.14519
 Alpha  occ. eigenvalues --   -0.10777  -0.10571  -0.07408  -0.03928   0.02718
 Alpha  occ. eigenvalues --    0.16063
 Alpha virt. eigenvalues --    0.17624   0.18619   0.26449   0.27418   0.29686
 Alpha virt. eigenvalues --    0.30641   0.32733   0.40485   0.42956   0.49197
 Alpha virt. eigenvalues --    0.49582   0.52958   0.55465   0.56591   0.61384
 Alpha virt. eigenvalues --    0.63461   0.64923   0.65338   0.69917   0.72168
 Alpha virt. eigenvalues --    0.75523   0.79089   0.83454   0.86797   0.87233
 Alpha virt. eigenvalues --    1.00396   1.01045   1.11459   1.16078
          Condensed to atoms (all electrons):
               1          2          3          4          5          6
     1  N    6.570855   0.687827  -0.000222  -0.011465  -0.000078  -0.000001
     2  C    0.687827   4.889293  -0.030900   0.429513  -0.030954   0.000936
     3  C   -0.000222  -0.030900   4.831352   0.499171  -0.030383  -0.010645
     4  C   -0.011465   0.429513   0.499171   4.774155   0.471322  -0.031261
     5  C   -0.000078  -0.030954  -0.030383   0.471322   4.754639   0.510653
     6  C   -0.000001   0.000936  -0.010645  -0.031261   0.510653   4.836705
     7  C    0.000000   0.000008  -0.037598  -0.008892  -0.029136   0.474989
     8  C   -0.000001   0.000973   0.482598  -0.029257  -0.010073  -0.027671
     9  C    0.000000  -0.000007  -0.039726   0.000994   0.000039   0.001232
    10  C    0.000000   0.000000   0.001391  -0.000016   0.000001   0.000057
    11  C    0.000000   0.000000  -0.000029   0.000001  -0.000010   0.000945
    12  C    0.000000   0.000000   0.000968   0.000048   0.000896  -0.033474
    13  N   -0.000009  -0.000016  -0.000001  -0.000050  -0.011283  -0.000286
    14  C   -0.000011  -0.003039   0.000935  -0.030182   0.428455  -0.031718
    15  H    0.000048  -0.003741   0.387303  -0.026072   0.001350   0.000029
    16  H    0.000000  -0.000021   0.000005   0.001368  -0.026616   0.386204
    17  H    0.000000   0.000000  -0.000002   0.000000   0.000000   0.000002
    18  H    0.000000   0.000000   0.000002   0.000000   0.000000  -0.000016
    19  H    0.000000   0.000000  -0.000025  -0.000001   0.000020  -0.004270
               7          8          9         10         11         12
     1  N    0.000000  -0.000001   0.000000   0.000000   0.000000   0.000000
     2  C    0.000008   0.000973  -0.000007   0.000000   0.000000   0.000000
     3  C   -0.037598   0.482598  -0.039726   0.001391  -0.000029   0.000968
     4  C   -0.008892  -0.029257   0.000994  -0.000016   0.000001   0.000048
     5  C   -0.029136  -0.010073   0.000039   0.000001  -0.000010   0.000896
     6  C    0.474989  -0.027671   0.001232   0.000057   0.000945  -0.033474
     7  C    4.807267   0.441601  -0.032073  -0.012665  -0.027329   0.494113
     8  C    0.441601   4.833156   0.450436  -0.028192  -0.012046  -0.033544
     9  C   -0.032073   0.450436   5.452467   0.484987  -0.028854  -0.013513
    10  C   -0.012665  -0.028192   0.484987   4.889219   0.481704  -0.033274
    11  C   -0.027329  -0.012046  -0.028854   0.481704   4.852189   0.513811
    12  C    0.494113  -0.033544  -0.013513  -0.033274   0.513811   4.869228
    13  N   -0.000001   0.000000   0.000000   0.000000   0.000000   0.000000
    14  C    0.000999   0.000019   0.000000   0.000000   0.000000  -0.000008
    15  H    0.001595  -0.023999  -0.001599   0.000029   0.000001  -0.000018
    16  H   -0.025120   0.001446  -0.000034  -0.000003   0.000019  -0.003993
    17  H   -0.000049   0.002091  -0.036094   0.386724  -0.035004   0.001424
    18  H    0.001450   0.000092   0.001727  -0.025839   0.380166  -0.027753
    19  H   -0.026246   0.001346   0.000033   0.001471  -0.027614   0.389876
              13         14         15         16         17         18
     1  N   -0.000009  -0.000011   0.000048   0.000000   0.000000   0.000000
     2  C   -0.000016  -0.003039  -0.003741  -0.000021   0.000000   0.000000
     3  C   -0.000001   0.000935   0.387303   0.000005  -0.000002   0.000002
     4  C   -0.000050  -0.030182  -0.026072   0.001368   0.000000   0.000000
     5  C   -0.011283   0.428455   0.001350  -0.026616   0.000000   0.000000
     6  C   -0.000286  -0.031718   0.000029   0.386204   0.000002  -0.000016
     7  C   -0.000001   0.000999   0.001595  -0.025120  -0.000049   0.001450
     8  C    0.000000   0.000019  -0.023999   0.001446   0.002091   0.000092
     9  C    0.000000   0.000000  -0.001599  -0.000034  -0.036094   0.001727
    10  C    0.000000   0.000000   0.000029  -0.000003   0.386724  -0.025839
    11  C    0.000000   0.000000   0.000001   0.000019  -0.035004   0.380166
    12  C    0.000000  -0.000008  -0.000018  -0.003993   0.001424  -0.027753
    13  N    6.564103   0.688841   0.000000   0.000046   0.000000   0.000000
    14  C    0.688841   4.885310  -0.000019  -0.003937   0.000000   0.000000
    15  H    0.000000  -0.000019   0.581495   0.000002  -0.000005   0.000000
    16  H    0.000046  -0.003937   0.000002   0.605206   0.000000  -0.000004
    17  H    0.000000   0.000000  -0.000005   0.000000   0.663845  -0.002854
    18  H    0.000000   0.000000   0.000000  -0.000004  -0.002854   0.642439
    19  H    0.000000  -0.000001   0.000001   0.001065  -0.000044  -0.004107
              19
     1  N    0.000000
     2  C    0.000000
     3  C   -0.000025
     4  C   -0.000001
     5  C    0.000020
     6  C   -0.004270
     7  C   -0.026246
     8  C    0.001346
     9  C    0.000033
    10  C    0.001471
    11  C   -0.027614
    12  C    0.389876
    13  N    0.000000
    14  C   -0.000001
    15  H    0.000001
    16  H    0.001065
    17  H   -0.000044
    18  H   -0.004107
    19  H    0.632275
 Mulliken charges:
               1
     1  N   -0.246943
     2  C    0.060126
     3  C   -0.054192
     4  C   -0.039375
     5  C   -0.028841
     6  C   -0.072408
     7  C   -0.022912
     8  C   -0.048974
     9  C   -0.240015
    10  C   -0.145591
    11  C   -0.097951
    12  C   -0.124787
    13  N   -0.241342
    14  C    0.064357
    15  H    0.083599
    16  H    0.064365
    17  H    0.019967
    18  H    0.034697
    19  H    0.036221
 Sum of Mulliken charges =  -1.00000
 Mulliken charges with hydrogens summed into heavy atoms:
               1
     1  N   -0.246943
     2  C    0.060126
     3  C    0.029406
     4  C   -0.039375
     5  C   -0.028841
     6  C   -0.008042
     7  C   -0.022912
     8  C   -0.048974
     9  C   -0.240015
    10  C   -0.125624
    11  C   -0.063254
    12  C   -0.088566
    13  N   -0.241342
    14  C    0.064357
 Electronic spatial extent (au):  <R**2>=           2793.9458
 Charge=             -1.0000 electrons
 Dipole moment (field-independent basis, Debye):
    X=             -0.4791    Y=              3.1339    Z=              0.0024  Tot=              3.1703
 Quadrupole moment (field-independent basis, Debye-Ang):
   XX=           -125.4931   YY=            -91.0071   ZZ=            -73.7988
   XY=             -8.4231   XZ=              0.0018   YZ=             -0.0008
 Traceless Quadrupole moment (field-independent basis, Debye-Ang):
   XX=            -28.7267   YY=              5.7593   ZZ=             22.9675
   XY=             -8.4231   XZ=              0.0018   YZ=             -0.0008
 Octapole moment (field-independent basis, Debye-Ang**2):
  XXX=            -61.3721  YYY=             16.7605  ZZZ=             -0.0023  XYY=            -20.7581
  XXY=             22.9659  XXZ=              0.0237  XZZ=              7.7454  YZZ=             -0.3433
  YYZ=              0.0143  XYZ=              0.0156
 Hexadecapole moment (field-independent basis, Debye-Ang**3):
 XXXX=          -3313.0336 YYYY=           -930.1108 ZZZZ=            -57.9582 XXXY=            -48.7981
 XXXZ=              0.0545 YYYX=            -53.2000 YYYZ=             -0.0009 ZZZX=             -0.0082
 ZZZY=             -0.0058 XXYY=           -824.4527 XXZZ=           -455.6699 YYZZ=           -154.2164
 XXYZ=              0.0176 YYXZ=              0.0122 ZZXY=              0.7887
 N-N= 7.076833044057D+02 E-N=-2.737389096606D+03  KE= 5.553684065846D+02
 Calling FoFJK, ICntrl=      2127 FMM=F ISym2X=0 I1Cent= 0 IOpClX= 0 NMat=1 NMatS=1 NMatT=0.
 ***** Axes restored to original set *****
 -------------------------------------------------------------------
 Center     Atomic                   Forces (Hartrees/Bohr)
 Number     Number              X              Y              Z
 -------------------------------------------------------------------
      1        7          -0.106963745   -0.008382265    0.000069218
      2        6           0.087442513    0.010024790   -0.000068543
      3        6          -0.019607741    0.012153588    0.000001148
      4        6          -0.014293167   -0.041542865    0.000022799
      5        6           0.034651936    0.028463891   -0.000014415
      6        6          -0.017556585    0.022299782    0.000017387
      7        6           0.008629503    0.033528479   -0.000014922
      8        6           0.022852075   -0.012124554   -0.000019664
      9        6          -0.023856933   -0.097998390    0.000008355
     10        6          -0.021685116    0.016288024   -0.000005881
     11        6           0.013465835    0.009197592   -0.000009016
     12        6           0.025915746    0.003975480    0.000009105
     13        7          -0.050860010    0.092919594    0.000112736
     14        6           0.038190878   -0.074760557   -0.000107676
     15        1          -0.002575966   -0.007056506    0.000004967
     16        1           0.000944351    0.007979245    0.000007799
     17        1           0.012606514   -0.009350212   -0.000015459
     18        1           0.013041312    0.006512319    0.000004419
     19        1          -0.000341400    0.007872564   -0.000002356
 -------------------------------------------------------------------
 Cartesian Forces:  Max     0.106963745 RMS     0.031671824

 GradGradGradGradGradGradGradGradGradGradGradGradGradGradGradGradGradGrad
 Berny optimization.
 FormGI is forming the generalized inverse of G from B-inverse, IUseBI=4.
 Internal  Forces:  Max     0.107287771 RMS     0.021985728
 Search for a local minimum.
 Step number   1 out of a maximum of  102
 All quantities printed in internal units (Hartrees-Bohrs-Radians)
 Mixed Optimization -- RFO/linear search
 Second derivative matrix not updated -- first step.
 ITU=  0
     Eigenvalues ---    0.01611   0.01611   0.02002   0.02019   0.02021
     Eigenvalues ---    0.02035   0.02042   0.02048   0.02051   0.02057
     Eigenvalues ---    0.02063   0.02088   0.02112   0.02167   0.02170
     Eigenvalues ---    0.02186   0.04872   0.04872   0.16000   0.16000
     Eigenvalues ---    0.16000   0.16000   0.16000   0.22081   0.23007
     Eigenvalues ---    0.23447   0.23996   0.24913   0.25000   0.25000
     Eigenvalues ---    0.25000   0.34725   0.34812   0.34992   0.35088
     Eigenvalues ---    0.35208   0.38744   0.40124   0.40263   0.41072
     Eigenvalues ---    0.42329   0.43427   0.44782   0.45016   0.45087
     Eigenvalues ---    0.45316   0.45924   0.46083   0.46723   1.28077
     Eigenvalues ---    1.28161
 RFO step:  Lambda=-6.71229788D-02 EMin= 1.61111662D-02
 Linear search not attempted -- first point.
 Maximum step size (   0.300) exceeded in Quadratic search.
    -- Step size scaled by   0.811
 Iteration  1 RMS(Cart)=  0.04400246 RMS(Int)=  0.00104235
 Iteration  2 RMS(Cart)=  0.00205801 RMS(Int)=  0.00027226
 Iteration  3 RMS(Cart)=  0.00000117 RMS(Int)=  0.00027225
 Iteration  4 RMS(Cart)=  0.00000000 RMS(Int)=  0.00027225
 Variable       Old X    -DE/DX   Delta X   Delta X   Delta X     New X
                                 (Linear)    (Quad)   (Total)
    R1        2.19102   0.10729   0.00000   0.06453   0.06453   2.25556
    R2        2.71385   0.01938   0.00000   0.03358   0.03358   2.74743
    R3        2.65517   0.00993   0.00000   0.01471   0.01480   2.66996
    R4        2.65117   0.03236   0.00000   0.05146   0.05165   2.70283
    R5        2.05980   0.00744   0.00000   0.01454   0.01454   2.07435
    R6        2.64749   0.05065   0.00000   0.07700   0.07689   2.72438
    R7        2.65231   0.00126   0.00000   0.00114   0.00095   2.65325
    R8        2.71197   0.02207   0.00000   0.03811   0.03811   2.75008
    R9        2.64986   0.03655   0.00000   0.05797   0.05788   2.70774
   R10        2.06124   0.00751   0.00000   0.01470   0.01470   2.07595
   R11        2.66819   0.06146   0.00000   0.10324   0.10321   2.77140
   R12        2.65353   0.01837   0.00000   0.02901   0.02847   2.68200
   R13        2.64390   0.05325   0.00000   0.08453   0.08489   2.72879
   R14        2.63328   0.02571   0.00000   0.03886   0.03939   2.67267
   R15        2.63098   0.04079   0.00000   0.05933   0.05949   2.69046
   R16        2.05339   0.01457   0.00000   0.02819   0.02819   2.08158
   R17        2.63724   0.00683   0.00000   0.00823   0.00786   2.64510
   R18        2.05533   0.01326   0.00000   0.02574   0.02574   2.08107
   R19        2.05688   0.00670   0.00000   0.01304   0.01304   2.06992
   R20        2.19126   0.10593   0.00000   0.06375   0.06375   2.25502
    A1        2.10613   0.01130   0.00000   0.03217   0.03241   2.13854
    A2        2.09039  -0.00462   0.00000  -0.01239  -0.01251   2.07788
    A3        2.08666  -0.00668   0.00000  -0.01978  -0.01990   2.06677
    A4        2.07676   0.00203   0.00000   0.00725   0.00729   2.08405
    A5        2.11961  -0.00364   0.00000  -0.00726  -0.00722   2.11240
    A6        2.08681   0.00162   0.00000   0.00001  -0.00007   2.08674
    A7        2.09153   0.00103   0.00000  -0.00132  -0.00170   2.08984
    A8        2.12574  -0.00293   0.00000  -0.00552  -0.00533   2.12040
    A9        2.06592   0.00190   0.00000   0.00685   0.00703   2.07295
   A10        2.11114   0.00044   0.00000   0.00187   0.00153   2.11267
   A11        2.08545  -0.00317   0.00000  -0.01146  -0.01129   2.07416
   A12        2.08659   0.00273   0.00000   0.00959   0.00976   2.09635
   A13        2.07944   0.00533   0.00000   0.01664   0.01702   2.09646
   A14        2.12135   0.00161   0.00000  -0.00026   0.00015   2.12151
   A15        2.08239  -0.00695   0.00000  -0.01638  -0.01717   2.06522
   A16        2.09131  -0.01971   0.00000  -0.04937  -0.04918   2.04213
   A17        2.11014  -0.00799   0.00000  -0.02649  -0.02672   2.08342
   A18        2.08173   0.02770   0.00000   0.07585   0.07590   2.15763
   A19        2.11041  -0.05241   0.00000  -0.12974  -0.12833   1.98208
   A20        2.09320   0.02943   0.00000   0.07771   0.07836   2.17155
   A21        2.09064  -0.00872   0.00000  -0.01744  -0.01776   2.07288
   A22        2.09935  -0.02071   0.00000  -0.06027  -0.06060   2.03875
   A23        2.09292   0.00881   0.00000   0.01562   0.01532   2.10825
   A24        2.09710   0.00181   0.00000   0.01438   0.01453   2.11163
   A25        2.09316  -0.01062   0.00000  -0.03001  -0.02986   2.06330
   A26        2.10571  -0.00658   0.00000  -0.02306  -0.02408   2.08163
   A27        2.10358  -0.00097   0.00000  -0.00368  -0.00317   2.10041
   A28        2.07389   0.00755   0.00000   0.02674   0.02725   2.10114
   A29        3.15003   0.00202   0.00000   0.01967   0.01967   3.16969
   A30        3.16891   0.00002   0.00000   0.00016   0.00016   3.16907
   A31        3.14158   0.00000   0.00000  -0.00003  -0.00003   3.14155
   A32        3.14154   0.00000   0.00000  -0.00002  -0.00002   3.14152
    D1       -3.14132  -0.00001   0.00000  -0.00011  -0.00011  -3.14143
    D2       -0.00022   0.00001   0.00000   0.00004   0.00004  -0.00019
    D3        0.00049  -0.00001   0.00000  -0.00010  -0.00010   0.00039
    D4        3.14159   0.00001   0.00000   0.00005   0.00005  -3.14155
    D5       -0.00010   0.00001   0.00000   0.00005   0.00005  -0.00004
    D6        3.14149   0.00001   0.00000   0.00006   0.00006   3.14155
    D7        3.14128   0.00001   0.00000   0.00004   0.00004   3.14132
    D8       -0.00032   0.00001   0.00000   0.00005   0.00004  -0.00027
    D9        3.14158   0.00001   0.00000   0.00004   0.00004  -3.14156
   D10        0.00014   0.00000   0.00000   0.00001   0.00001   0.00015
   D11        0.00049  -0.00001   0.00000  -0.00011  -0.00011   0.00038
   D12       -3.14095  -0.00002   0.00000  -0.00014  -0.00014  -3.14109
   D13       -0.00045   0.00001   0.00000   0.00011   0.00011  -0.00034
   D14        3.14128   0.00001   0.00000   0.00006   0.00006   3.14134
   D15        3.14100   0.00002   0.00000   0.00014   0.00014   3.14113
   D16       -0.00046   0.00001   0.00000   0.00009   0.00009  -0.00037
   D17        0.00013   0.00000   0.00000  -0.00002  -0.00002   0.00011
   D18       -3.14148   0.00000   0.00000  -0.00001  -0.00001  -3.14149
   D19        3.14159   0.00000   0.00000   0.00002   0.00002  -3.14158
   D20       -0.00002   0.00000   0.00000   0.00003   0.00003   0.00001
   D21        0.00014  -0.00001   0.00000  -0.00006  -0.00006   0.00008
   D22       -3.14145  -0.00001   0.00000  -0.00006  -0.00006  -3.14151
   D23       -3.14143  -0.00001   0.00000  -0.00007  -0.00007  -3.14150
   D24        0.00016  -0.00001   0.00000  -0.00008  -0.00007   0.00009
   D25        3.14132   0.00001   0.00000   0.00010   0.00010   3.14141
   D26        0.00003   0.00000   0.00000   0.00002   0.00002   0.00005
   D27       -0.00029   0.00001   0.00000   0.00011   0.00011  -0.00019
   D28       -3.14158   0.00000   0.00000   0.00003   0.00003  -3.14155
   D29       -3.14155  -0.00001   0.00000  -0.00004  -0.00004   3.14159
   D30        0.00004   0.00000   0.00000  -0.00004  -0.00003   0.00000
   D31       -0.00011   0.00001   0.00000   0.00012   0.00012   0.00001
   D32        3.14150   0.00001   0.00000   0.00007   0.00007   3.14157
   D33       -0.00002  -0.00001   0.00000  -0.00009  -0.00009  -0.00011
   D34       -3.14153  -0.00001   0.00000  -0.00008  -0.00009   3.14156
   D35        3.14156   0.00000   0.00000  -0.00004  -0.00004   3.14151
   D36        0.00004   0.00000   0.00000  -0.00004  -0.00004   0.00000
   D37        0.00022   0.00000   0.00000  -0.00002  -0.00002   0.00020
   D38        3.14151   0.00001   0.00000   0.00005   0.00005   3.14156
   D39       -3.14145   0.00000   0.00000  -0.00002  -0.00002  -3.14147
   D40       -0.00016   0.00001   0.00000   0.00005   0.00005  -0.00011
         Item               Value     Threshold  Converged?
 Maximum Force            0.107288     0.000450     NO 
 RMS     Force            0.021986     0.000300     NO 
 Maximum Displacement     0.247982     0.001800     NO 
 RMS     Displacement     0.043489     0.001200     NO 
 Predicted change in Energy=-3.537838D-02
 GradGradGradGradGradGradGradGradGradGradGradGradGradGradGradGradGradGrad

                          Input orientation:                          
 ---------------------------------------------------------------------
 Center     Atomic      Atomic             Coordinates (Angstroms)
 Number     Number       Type             X           Y           Z
 ---------------------------------------------------------------------
      1          7           0        1.149199   -0.188652   -0.060109
      2          6           0        2.338485   -0.087389   -0.060817
      3          6           0        4.552556   -1.194234   -0.062314
      4          6           0        3.790012   -0.004796   -0.061650
      5          6           0        4.461833    1.270781   -0.061376
      6          6           0        5.865050    1.318899   -0.062233
      7          6           0        6.645683    0.117341   -0.062960
      8          6           0        5.982827   -1.190873   -0.062957
      9          6           0        6.694025   -2.447606   -0.063566
     10          6           0        8.100747   -2.301220   -0.064169
     11          6           0        8.779654   -1.049781   -0.064182
     12          6           0        8.064478    0.153447   -0.063707
     13          7           0        3.136632    3.563713   -0.058937
     14          6           0        3.718085    2.521654   -0.060075
     15          1           0        4.032449   -2.160893   -0.062564
     16          1           0        6.361674    2.298777   -0.062251
     17          1           0        8.727950   -3.206745   -0.064638
     18          1           0        9.879855   -1.001594   -0.064642
     19          1           0        8.593625    1.112511   -0.063692
 ---------------------------------------------------------------------
                    Distance matrix (angstroms):
                    1          2          3          4          5
     1  N    0.000000
     2  C    1.193589   0.000000
     3  C    3.548808   2.475323   0.000000
     4  C    2.647205   1.453875   1.412883   0.000000
     5  C    3.619874   2.520563   2.466685   1.441680   0.000000
     6  C    4.950955   3.796618   2.835221   2.461291   1.404042
     7  C    5.504995   4.312062   2.470103   2.858282   2.469742
     8  C    4.936437   3.807744   1.430274   2.493034   2.893642
     9  C    5.987318   4.953924   2.481296   3.794815   4.336945
    10  C    7.265464   6.172902   3.716864   4.884261   5.099107
    11  C    7.678893   6.512670   4.229566   5.097895   4.901897
    12  C    6.923736   5.731057   3.761628   4.277395   3.771935
    13  N    4.246190   3.737324   4.964163   3.627833   2.648339
    14  C    3.734292   2.951340   3.808434   2.527474   1.455282
    15  H    3.493260   2.677487   1.097698   2.169684   3.458433
    16  H    5.775569   4.677590   3.933705   3.452520   2.160132
    17  H    8.157596   7.110251   4.635096   5.885212   6.184497
    18  H    8.768423   7.596582   5.330781   6.170884   5.875259
    19  H    7.557282   6.369188   4.653097   4.931843   4.134823
                    6          7          8          9         10
     6  C    0.000000
     7  C    1.432875   0.000000
     8  C    2.512534   1.466562   0.000000
     9  C    3.856652   2.565403   1.444016   0.000000
    10  C    4.254833   2.822525   2.391329   1.414318   0.000000
    11  C    3.755738   2.432285   2.800384   2.510730   1.423732
    12  C    2.489129   1.419255   2.477998   2.940004   2.454935
    13  N    3.533195   4.918428   5.541383   6.985057   7.683742
    14  C    2.460910   3.788345   4.348784   5.792217   6.516736
    15  H    3.932858   3.466892   2.178282   2.676975   4.070718
    16  H    1.098543   2.199846   3.510154   4.758005   4.917758
    17  H    5.355152   3.922421   3.405796   2.170978   1.101526
    18  H    4.637171   3.422264   3.901623   3.498638   2.203237
    19  H    2.736370   2.187428   3.481644   4.035209   3.449128
                   11         12         13         14         15
    11  C    0.000000
    12  C    1.399727   0.000000
    13  N    7.288899   5.992796   0.000000
    14  C    6.194727   4.949702   1.193305   0.000000
    15  H    4.875503   4.649025   5.794274   4.693088   0.000000
    16  H    4.130311   2.738974   3.464242   2.652968   5.031296
    17  H    2.157583   3.425067   8.780773   7.610080   4.810566
    18  H    1.101256   2.151677   8.143287   7.097937   5.961220
    19  H    2.170279   1.095353   5.982240   5.075095   5.614223
                   16         17         18         19
    16  H    0.000000
    17  H    5.992498   0.000000
    18  H    4.823904   2.487885   0.000000
    19  H    2.527614   4.321343   2.474637   0.000000
 Stoichiometry    C12H5N2(1-)
 Framework group  C1[X(C12H5N2)]
 Deg. of freedom    51
 Full point group                 C1      NOp   1
 Largest Abelian subgroup         C1      NOp   1
 Largest concise Abelian subgroup C1      NOp   1
                         Standard orientation:                         
 ---------------------------------------------------------------------
 Center     Atomic      Atomic             Coordinates (Angstroms)
 Number     Number       Type             X           Y           Z
 ---------------------------------------------------------------------
      1          7           0        3.572221   -2.109806   -0.000007
      2          6           0        2.563605   -1.471568    0.000147
      3          6           0        0.088586   -1.432809    0.000064
      4          6           0        1.313681   -0.728976    0.000286
      5          6           0        1.305715    0.712682    0.000214
      6          6           0        0.082762    1.402406    0.000386
      7          6           0       -1.163972    0.696160    0.000215
      8          6           0       -1.179010   -0.770325   -0.000009
      9          6           0       -2.389573   -1.557547   -0.000288
     10          6           0       -3.570324   -0.779008   -0.000329
     11          6           0       -3.595708    0.644498   -0.000128
     12          6           0       -2.406287    1.382409    0.000264
     13          7           0        3.538906    2.136253   -0.000591
     14          6           0        2.542458    1.479695   -0.000185
     15          1           0        0.104372   -2.530393    0.000166
     16          1           0        0.093908    2.500892    0.000569
     17          1           0       -4.544411   -1.293317   -0.000558
     18          1           0       -4.549749    1.194562   -0.000200
     19          1           0       -2.433597    2.477422    0.000389
 ---------------------------------------------------------------------
 Rotational constants (GHZ):      1.4932500      0.4688594      0.3568222
 Standard basis: STO-3G (5D, 7F)
 There are    75 symmetry adapted cartesian basis functions of A   symmetry.
 There are    75 symmetry adapted basis functions of A   symmetry.
    75 basis functions,   225 primitive gaussians,    75 cartesian basis functions
    46 alpha electrons       46 beta electrons
       nuclear repulsion energy       695.8952413822 Hartrees.
 NAtoms=   19 NActive=   19 NUniq=   19 SFac= 1.00D+00 NAtFMM=   60 NAOKFM=F Big=F
 Integral buffers will be    131072 words long.
 Raffenetti 2 integral format.
 Two-electron integral symmetry is turned on.
 One-electron integrals computed using PRISM.
 NBasis=    75 RedAO= T EigKep=  1.71D-01  NBF=    75
 NBsUse=    75 1.00D-06 EigRej= -1.00D+00 NBFU=    75
 Initial guess from the checkpoint file:  "/tmp/bnp.472657.sequoia/Gau-26403.chk"
 B after Tr=     0.000000    0.000000    0.000000
         Rot=    0.999996    0.000002    0.000000    0.002917 Ang=   0.33 deg.
 ExpMin= 1.69D-01 ExpMax= 9.91D+01 ExpMxC= 9.91D+01 IAcc=1 IRadAn=         1 AccDes= 0.00D+00
 Harris functional with IExCor=  402 and IRadAn=       1 diagonalized for initial guess.
 HarFok:  IExCor=  402 AccDes= 0.00D+00 IRadAn=         1 IDoV= 1 UseB2=F ITyADJ=14
 ICtDFT=  3500011 ScaDFX=  1.000000  1.000000  1.000000  1.000000
 FoFCou: FMM=F IPFlag=           0 FMFlag=      100000 FMFlg1=           0
         NFxFlg=           0 DoJE=T BraDBF=F KetDBF=T FulRan=T
         wScrn=  0.000000 ICntrl=     500 IOpCl=  0 I1Cent=   200000004 NGrid=           0
         NMat0=    1 NMatS0=      1 NMatT0=    0 NMatD0=    1 NMtDS0=    0 NMtDT0=    0
 Petite list used in FoFCou.
 Keep R1 ints in memory in canonical form, NReq=4993994.
 Requested convergence on RMS density matrix=1.00D-08 within 128 cycles.
 Requested convergence on MAX density matrix=1.00D-06.
 Requested convergence on             energy=1.00D-06.
 No special actions if energy rises.
 Integral accuracy reduced to 1.0D-05 until final iterations.
 Initial convergence to 1.0D-05 achieved.  Increase integral accuracy.
 SCF Done:  E(RB3LYP) =  -562.503729624     A.U. after   21 cycles
            NFock= 21  Conv=0.22D-08     -V/T= 2.0139
 Calling FoFJK, ICntrl=      2127 FMM=F ISym2X=0 I1Cent= 0 IOpClX= 0 NMat=1 NMatS=1 NMatT=0.
 ***** Axes restored to original set *****
 -------------------------------------------------------------------
 Center     Atomic                   Forces (Hartrees/Bohr)
 Number     Number              X              Y              Z
 -------------------------------------------------------------------
      1        7          -0.016108134   -0.001237247    0.000007818
      2        6           0.012861062    0.002685533   -0.000009690
      3        6          -0.004467781    0.011378036   -0.000021643
      4        6          -0.003864443   -0.016493920    0.000026708
      5        6           0.012529983    0.009188291   -0.000009885
      6        6          -0.007121765    0.000283630    0.000011099
      7        6          -0.004186188    0.008434951   -0.000009840
      8        6           0.011259017    0.009456318    0.000000838
      9        6          -0.012949415   -0.039223069   -0.000006711
     10        6          -0.000752342    0.015044462    0.000008040
     11        6           0.002923713   -0.001459472   -0.000015400
     12        6           0.008865408   -0.001682067    0.000012936
     13        7          -0.007680030    0.013822915    0.000014648
     14        6           0.003529013   -0.011048909   -0.000022104
     15        1          -0.000461274   -0.001954944    0.000009207
     16        1           0.000695069    0.000880031    0.000006807
     17        1           0.004294502   -0.000560713   -0.000000302
     18        1           0.001583552    0.000366811   -0.000001130
     19        1          -0.000949949    0.002119362   -0.000001395
 -------------------------------------------------------------------
 Cartesian Forces:  Max     0.039223069 RMS     0.008281166

 GradGradGradGradGradGradGradGradGradGradGradGradGradGradGradGradGradGrad
 Berny optimization.
 Using GEDIIS/GDIIS optimizer.
 FormGI is forming the generalized inverse of G from B-inverse, IUseBI=4.
 Internal  Forces:  Max     0.021325107 RMS     0.005165320
 Search for a local minimum.
 Step number   2 out of a maximum of  102
 All quantities printed in internal units (Hartrees-Bohrs-Radians)
 Mixed Optimization -- RFO/linear search
 Update second derivatives using D2CorX and points    1    2
 DE= -3.34D-02 DEPred=-3.54D-02 R= 9.45D-01
 TightC=F SS=  1.41D+00  RLast= 3.00D-01 DXNew= 5.0454D-01 8.9990D-01
 Trust test= 9.45D-01 RLast= 3.00D-01 DXMaxT set to 5.05D-01
 ITU=  1  0
 Use linear search instead of GDIIS.
     Eigenvalues ---    0.01611   0.01614   0.02002   0.02018   0.02021
     Eigenvalues ---    0.02035   0.02041   0.02048   0.02051   0.02057
     Eigenvalues ---    0.02063   0.02089   0.02110   0.02167   0.02172
     Eigenvalues ---    0.02186   0.04872   0.04872   0.15939   0.16000
     Eigenvalues ---    0.16000   0.16000   0.16093   0.21910   0.22418
     Eigenvalues ---    0.23374   0.23889   0.24482   0.24998   0.25000
     Eigenvalues ---    0.25104   0.34738   0.34814   0.34996   0.35131
     Eigenvalues ---    0.35283   0.38935   0.40175   0.40350   0.41127
     Eigenvalues ---    0.41931   0.43390   0.44274   0.44996   0.45092
     Eigenvalues ---    0.45564   0.46058   0.46359   0.50619   1.28119
     Eigenvalues ---    1.33438
 RFO step:  Lambda=-3.17952631D-03 EMin= 1.61111662D-02
 Quartic linear search produced a step of  0.37586.
 Iteration  1 RMS(Cart)=  0.02351477 RMS(Int)=  0.00067286
 Iteration  2 RMS(Cart)=  0.00127256 RMS(Int)=  0.00027657
 Iteration  3 RMS(Cart)=  0.00000047 RMS(Int)=  0.00027657
 Variable       Old X    -DE/DX   Delta X   Delta X   Delta X     New X
                                 (Linear)    (Quad)   (Total)
    R1        2.25556   0.01616   0.02426  -0.01048   0.01377   2.26933
    R2        2.74743   0.00316   0.01262  -0.00428   0.00834   2.75577
    R3        2.66996  -0.00381   0.00556  -0.01865  -0.01301   2.65695
    R4        2.70283   0.00664   0.01941  -0.00258   0.01698   2.71981
    R5        2.07435   0.00194   0.00547   0.00103   0.00650   2.08085
    R6        2.72438   0.01084   0.02890  -0.00235   0.02648   2.75086
    R7        2.65325  -0.00308   0.00036  -0.01004  -0.00982   2.64343
    R8        2.75008   0.00451   0.01432  -0.00178   0.01254   2.76263
    R9        2.70774   0.00499   0.02176  -0.01025   0.01143   2.71917
   R10        2.07595   0.00110   0.00553  -0.00232   0.00321   2.07915
   R11        2.77140   0.00886   0.03879  -0.01574   0.02300   2.79440
   R12        2.68200   0.00480   0.01070   0.00164   0.01179   2.69380
   R13        2.72879   0.02051   0.03191   0.02542   0.05770   2.78650
   R14        2.67267   0.01260   0.01481   0.01956   0.03488   2.70756
   R15        2.69046   0.00375   0.02236  -0.01713   0.00538   2.69584
   R16        2.08158   0.00291   0.01060  -0.00146   0.00913   2.09072
   R17        2.64510  -0.00052   0.00295  -0.00695  -0.00439   2.64071
   R18        2.08107   0.00160   0.00968  -0.00540   0.00428   2.08535
   R19        2.06992   0.00140   0.00490  -0.00044   0.00446   2.07438
   R20        2.25502   0.01581   0.02396  -0.01050   0.01346   2.26848
    A1        2.13854   0.00552   0.01218   0.01818   0.03053   2.16906
    A2        2.07788  -0.00222  -0.00470  -0.00633  -0.01112   2.06677
    A3        2.06677  -0.00330  -0.00748  -0.01185  -0.01941   2.04735
    A4        2.08405   0.00301   0.00274   0.01416   0.01692   2.10097
    A5        2.11240  -0.00177  -0.00271  -0.00508  -0.00777   2.10463
    A6        2.08674  -0.00125  -0.00003  -0.00908  -0.00916   2.07758
    A7        2.08984  -0.00091  -0.00064  -0.00613  -0.00704   2.08280
    A8        2.12040  -0.00247  -0.00201  -0.00997  -0.01184   2.10856
    A9        2.07295   0.00338   0.00264   0.01610   0.01888   2.09182
   A10        2.11267   0.00162   0.00057   0.00948   0.00978   2.12246
   A11        2.07416  -0.00058  -0.00424   0.00229  -0.00181   2.07235
   A12        2.09635  -0.00104   0.00367  -0.01177  -0.00797   2.08838
   A13        2.09646   0.00133   0.00640   0.00040   0.00714   2.10360
   A14        2.12151   0.00100   0.00006   0.00346   0.00395   2.12546
   A15        2.06522  -0.00233  -0.00645  -0.00386  -0.01110   2.05413
   A16        2.04213  -0.00631  -0.01849  -0.01284  -0.03126   2.01087
   A17        2.08342  -0.00485  -0.01004  -0.01762  -0.02786   2.05557
   A18        2.15763   0.01116   0.02853   0.03046   0.05912   2.21675
   A19        1.98208  -0.02133  -0.04823  -0.05229  -0.09901   1.88307
   A20        2.17155   0.01189   0.02945   0.03208   0.06214   2.23369
   A21        2.07288  -0.00260  -0.00668   0.00176  -0.00522   2.06766
   A22        2.03875  -0.00929  -0.02278  -0.03384  -0.05692   1.98184
   A23        2.10825   0.00246   0.00576  -0.00076   0.00463   2.11287
   A24        2.11163  -0.00092   0.00546  -0.00775  -0.00210   2.10953
   A25        2.06330  -0.00154  -0.01122   0.00851  -0.00252   2.06078
   A26        2.08163  -0.00185  -0.00905  -0.00563  -0.01577   2.06586
   A27        2.10041  -0.00099  -0.00119  -0.00601  -0.00665   2.09376
   A28        2.10114   0.00285   0.01024   0.01164   0.02243   2.12357
   A29        3.16969  -0.00030   0.00739  -0.03994  -0.03255   3.13715
   A30        3.16907   0.00006   0.00006   0.00159   0.00165   3.17071
   A31        3.14155   0.00000  -0.00001   0.00031   0.00030   3.14185
   A32        3.14152   0.00000  -0.00001   0.00004   0.00003   3.14155
    D1       -3.14143   0.00000  -0.00004  -0.00016  -0.00020   3.14155
    D2       -0.00019   0.00001   0.00001   0.00029   0.00031   0.00012
    D3        0.00039  -0.00001  -0.00004  -0.00048  -0.00051  -0.00012
    D4       -3.14155   0.00000   0.00002  -0.00002   0.00000  -3.14155
    D5       -0.00004   0.00000   0.00002  -0.00006  -0.00004  -0.00009
    D6        3.14155   0.00000   0.00002  -0.00009  -0.00007   3.14148
    D7        3.14132   0.00001   0.00001   0.00025   0.00026   3.14158
    D8       -0.00027   0.00000   0.00002   0.00022   0.00024  -0.00004
    D9       -3.14156   0.00000   0.00002   0.00001   0.00002  -3.14154
   D10        0.00015   0.00000   0.00000  -0.00007  -0.00007   0.00008
   D11        0.00038  -0.00001  -0.00004  -0.00045  -0.00049  -0.00011
   D12       -3.14109  -0.00001  -0.00005  -0.00053  -0.00058   3.14151
   D13       -0.00034   0.00001   0.00004   0.00038   0.00043   0.00008
   D14        3.14134   0.00001   0.00002   0.00027   0.00029  -3.14155
   D15        3.14113   0.00001   0.00005   0.00046   0.00051  -3.14154
   D16       -0.00037   0.00001   0.00003   0.00034   0.00038   0.00001
   D17        0.00011   0.00000  -0.00001  -0.00015  -0.00016  -0.00005
   D18       -3.14149   0.00000   0.00000  -0.00013  -0.00013   3.14156
   D19       -3.14158   0.00000   0.00001  -0.00003  -0.00002   3.14158
   D20        0.00001   0.00000   0.00001  -0.00001   0.00000   0.00001
   D21        0.00008   0.00000  -0.00002  -0.00001  -0.00003   0.00005
   D22       -3.14151   0.00000  -0.00002   0.00002   0.00000  -3.14152
   D23       -3.14150   0.00000  -0.00003  -0.00003  -0.00006  -3.14156
   D24        0.00009   0.00000  -0.00003   0.00000  -0.00003   0.00006
   D25        3.14141   0.00000   0.00004   0.00013   0.00017   3.14158
   D26        0.00005   0.00000   0.00001  -0.00009  -0.00008  -0.00003
   D27       -0.00019   0.00000   0.00004   0.00015   0.00019   0.00001
   D28       -3.14155   0.00000   0.00001  -0.00006  -0.00005   3.14158
   D29        3.14159   0.00000  -0.00002   0.00001   0.00000   3.14159
   D30        0.00000   0.00000  -0.00001  -0.00002  -0.00003  -0.00003
   D31        0.00001   0.00000   0.00004  -0.00011  -0.00007  -0.00006
   D32        3.14157   0.00000   0.00003  -0.00005  -0.00002   3.14155
   D33       -0.00011   0.00000  -0.00003   0.00027   0.00024   0.00013
   D34        3.14156   0.00000  -0.00003   0.00011   0.00007  -3.14155
   D35        3.14151   0.00000  -0.00002   0.00021   0.00019  -3.14148
   D36        0.00000   0.00000  -0.00001   0.00004   0.00003   0.00003
   D37        0.00020  -0.00001  -0.00001  -0.00028  -0.00029  -0.00009
   D38        3.14156   0.00000   0.00002  -0.00007  -0.00004   3.14152
   D39       -3.14147   0.00000  -0.00001  -0.00012  -0.00013   3.14158
   D40       -0.00011   0.00000   0.00002   0.00009   0.00011   0.00001
         Item               Value     Threshold  Converged?
 Maximum Force            0.021325     0.000450     NO 
 RMS     Force            0.005165     0.000300     NO 
 Maximum Displacement     0.144000     0.001800     NO 
 RMS     Displacement     0.023396     0.001200     NO 
 Predicted change in Energy=-3.584096D-03
 GradGradGradGradGradGradGradGradGradGradGradGradGradGradGradGradGradGrad

                          Input orientation:                          
 ---------------------------------------------------------------------
 Center     Atomic      Atomic             Coordinates (Angstroms)
 Number     Number       Type             X           Y           Z
 ---------------------------------------------------------------------
      1          7           0        1.135532   -0.145595   -0.060401
      2          6           0        2.335029   -0.088076   -0.060635
      3          6           0        4.564819   -1.185859   -0.062193
      4          6           0        3.791320   -0.011753   -0.061282
      5          6           0        4.465432    1.278446   -0.061209
      6          6           0        5.863625    1.321140   -0.061904
      7          6           0        6.654818    0.119262   -0.062794
      8          6           0        6.003900   -1.208502   -0.062933
      9          6           0        6.670438   -2.523808   -0.063705
     10          6           0        8.085646   -2.300123   -0.064356
     11          6           0        8.777250   -1.052402   -0.064371
     12          6           0        8.079774    0.158493   -0.063543
     13          7           0        3.100369    3.563877   -0.059658
     14          6           0        3.699370    2.523580   -0.060381
     15          1           0        4.044372   -2.156240   -0.062283
     16          1           0        6.362916    2.301565   -0.061804
     17          1           0        8.758384   -3.178449   -0.064948
     18          1           0        9.880182   -1.016432   -0.064959
     19          1           0        8.601646    1.124217   -0.063477
 ---------------------------------------------------------------------
                    Distance matrix (angstroms):
                    1          2          3          4          5
     1  N    0.000000
     2  C    1.200876   0.000000
     3  C    3.583597   2.485376   0.000000
     4  C    2.659159   1.458289   1.405997   0.000000
     5  C    3.621619   2.531007   2.466309   1.455692   0.000000
     6  C    4.950371   3.799589   2.823462   2.463950   1.398845
     7  C    5.525638   4.324762   2.464028   2.866494   2.477321
     8  C    4.983050   3.836140   1.439259   2.515496   2.924345
     9  C    6.024209   4.972782   2.494742   3.820961   4.395360
    10  C    7.276407   6.161392   3.692940   4.865993   5.090395
    11  C    7.695334   6.513996   4.214545   5.093374   4.901493
    12  C    6.950897   5.750034   3.763269   4.291833   3.783883
    13  N    4.197710   3.731288   4.970374   3.641778   2.662066
    14  C    3.701049   2.946553   3.809061   2.536999   1.461920
    15  H    3.536106   2.683124   1.101137   2.159366   3.460398
    16  H    5.771840   4.683403   3.923682   3.458981   2.155741
    17  H    8.204030   7.128107   4.642888   5.890646   6.188163
    18  H    8.787905   7.602052   5.318063   6.171194   5.880986
    19  H    7.573328   6.382801   4.651067   4.942638   4.139090
                    6          7          8          9         10
     6  C    0.000000
     7  C    1.438922   0.000000
     8  C    2.533528   1.478733   0.000000
     9  C    3.928686   2.643116   1.474552   0.000000
    10  C    4.248638   2.810818   2.350597   1.432777   0.000000
    11  C    3.758047   2.424359   2.777740   2.569765   1.426578
    12  C    2.502612   1.425496   2.485544   3.030011   2.458623
    13  N    3.558857   4.949697   5.586243   7.057289   7.696721
    14  C    2.475856   3.809911   4.386262   5.856908   6.519780
    15  H    3.924518   3.462995   2.176685   2.651665   4.043835
    16  H    1.100239   2.201739   3.528380   4.835162   4.913587
    17  H    5.350321   3.911507   3.386426   2.188168   1.106360
    18  H    4.647255   3.419470   3.881038   3.546074   2.206405
    19  H    2.745094   2.190908   3.491399   4.127669   3.462999
                   11         12         13         14         15
    11  C    0.000000
    12  C    1.397405   0.000000
    13  N    7.316901   6.032507   0.000000
    14  C    6.210678   4.978110   1.200426   0.000000
    15  H    4.859896   4.652145   5.797490   4.692519   0.000000
    16  H    4.132567   2.745972   3.498236   2.672783   5.024706
    17  H    2.126130   3.405245   8.801825   7.622780   4.823570
    18  H    1.103518   2.149865   8.182000   7.122789   5.946078
    19  H    2.183692   1.097713   6.017974   5.098091   5.615171
                   16         17         18         19
    16  H    0.000000
    17  H    5.980704   0.000000
    18  H    4.835314   2.435723   0.000000
    19  H    2.529439   4.305520   2.493398   0.000000
 Stoichiometry    C12H5N2(1-)
 Framework group  C1[X(C12H5N2)]
 Deg. of freedom    51
 Full point group                 C1      NOp   1
 Largest Abelian subgroup         C1      NOp   1
 Largest concise Abelian subgroup C1      NOp   1
                         Standard orientation:                         
 ---------------------------------------------------------------------
 Center     Atomic      Atomic             Coordinates (Angstroms)
 Number     Number       Type             X           Y           Z
 ---------------------------------------------------------------------
      1          7           0        3.592982   -2.090378    0.000250
      2          6           0        2.557698   -1.481864   -0.000086
      3          6           0        0.073160   -1.417308   -0.000044
      4          6           0        1.303793   -0.737329   -0.000127
      5          6           0        1.306693    0.718360   -0.000041
      6          6           0        0.088595    1.406112   -0.000018
      7          6           0       -1.170614    0.709771    0.000024
      8          6           0       -1.211511   -0.768397   -0.000022
      9          6           0       -2.413078   -1.623113   -0.000079
     10          6           0       -3.562107   -0.767203   -0.000040
     11          6           0       -3.594441    0.659008    0.000109
     12          6           0       -2.414017    1.406898    0.000086
     13          7           0        3.577691    2.107304   -0.000049
     14          6           0        2.563758    1.464683   -0.000017
     15          1           0        0.082876   -2.518402   -0.000067
     16          1           0        0.102280    2.506266    0.000008
     17          1           0       -4.566033   -1.232139   -0.000114
     18          1           0       -4.554244    1.203555    0.000167
     19          1           0       -2.427159    2.504533    0.000130
 ---------------------------------------------------------------------
 Rotational constants (GHZ):      1.4919441      0.4650174      0.3545190
 Standard basis: STO-3G (5D, 7F)
 There are    75 symmetry adapted cartesian basis functions of A   symmetry.
 There are    75 symmetry adapted basis functions of A   symmetry.
    75 basis functions,   225 primitive gaussians,    75 cartesian basis functions
    46 alpha electrons       46 beta electrons
       nuclear repulsion energy       693.2464185859 Hartrees.
 NAtoms=   19 NActive=   19 NUniq=   19 SFac= 1.00D+00 NAtFMM=   60 NAOKFM=F Big=F
 Integral buffers will be    131072 words long.
 Raffenetti 2 integral format.
 Two-electron integral symmetry is turned on.
 One-electron integrals computed using PRISM.
 NBasis=    75 RedAO= T EigKep=  1.75D-01  NBF=    75
 NBsUse=    75 1.00D-06 EigRej= -1.00D+00 NBFU=    75
 Initial guess from the checkpoint file:  "/tmp/bnp.472657.sequoia/Gau-26403.chk"
 B after Tr=     0.000000    0.000000    0.000000
         Rot=    0.999999    0.000001    0.000000    0.001479 Ang=   0.17 deg.
 ExpMin= 1.69D-01 ExpMax= 9.91D+01 ExpMxC= 9.91D+01 IAcc=1 IRadAn=         1 AccDes= 0.00D+00
 Harris functional with IExCor=  402 and IRadAn=       1 diagonalized for initial guess.
 HarFok:  IExCor=  402 AccDes= 0.00D+00 IRadAn=         1 IDoV= 1 UseB2=F ITyADJ=14
 ICtDFT=  3500011 ScaDFX=  1.000000  1.000000  1.000000  1.000000
 FoFCou: FMM=F IPFlag=           0 FMFlag=      100000 FMFlg1=           0
         NFxFlg=           0 DoJE=T BraDBF=F KetDBF=T FulRan=T
         wScrn=  0.000000 ICntrl=     500 IOpCl=  0 I1Cent=   200000004 NGrid=           0
         NMat0=    1 NMatS0=      1 NMatT0=    0 NMatD0=    1 NMtDS0=    0 NMtDT0=    0
 Petite list used in FoFCou.
 Keep R1 ints in memory in canonical form, NReq=4993994.
 Requested convergence on RMS density matrix=1.00D-08 within 128 cycles.
 Requested convergence on MAX density matrix=1.00D-06.
 Requested convergence on             energy=1.00D-06.
 No special actions if energy rises.
 Integral accuracy reduced to 1.0D-05 until final iterations.
 Initial convergence to 1.0D-05 achieved.  Increase integral accuracy.
 SCF Done:  E(RB3LYP) =  -562.507635073     A.U. after   14 cycles
            NFock= 14  Conv=0.60D-08     -V/T= 2.0141
 Calling FoFJK, ICntrl=      2127 FMM=F ISym2X=0 I1Cent= 0 IOpClX= 0 NMat=1 NMatS=1 NMatT=0.
 ***** Axes restored to original set *****
 -------------------------------------------------------------------
 Center     Atomic                   Forces (Hartrees/Bohr)
 Number     Number              X              Y              Z
 -------------------------------------------------------------------
      1        7           0.001038738   -0.000952520    0.000010037
      2        6          -0.000222530    0.002714495   -0.000016582
      3        6          -0.001028311   -0.000177281    0.000008870
      4        6          -0.001566026   -0.003969151   -0.000007557
      5        6           0.000715412    0.002955841    0.000007154
      6        6          -0.001118490   -0.001006927   -0.000004266
      7        6          -0.000845694   -0.002407868    0.000005913
      8        6          -0.003005586    0.008616951    0.000001401
      9        6           0.000519483   -0.003541271   -0.000001647
     10        6           0.006147645   -0.000495891   -0.000005864
     11        6          -0.000850860    0.000475677    0.000006867
     12        6           0.000668430    0.001471067   -0.000003678
     13        7           0.000275143   -0.000900962   -0.000002687
     14        6           0.000009279   -0.000016935    0.000005504
     15        1           0.000359155    0.000068816    0.000000232
     16        1           0.000492613   -0.000540823   -0.000001762
     17        1          -0.000556390   -0.000636967   -0.000000328
     18        1          -0.000820769   -0.001334535   -0.000001105
     19        1          -0.000211242   -0.000321715   -0.000000503
 -------------------------------------------------------------------
 Cartesian Forces:  Max     0.008616951 RMS     0.001822368

 GradGradGradGradGradGradGradGradGradGradGradGradGradGradGradGradGradGrad
 Berny optimization.
 Using GEDIIS/GDIIS optimizer.
 FormGI is forming the generalized inverse of G from B-inverse, IUseBI=4.
 Internal  Forces:  Max     0.005510603 RMS     0.001012023
 Search for a local minimum.
 Step number   3 out of a maximum of  102
 All quantities printed in internal units (Hartrees-Bohrs-Radians)
 Mixed Optimization -- RFO/linear search
 Update second derivatives using D2CorX and points    1    2    3
 DE= -3.91D-03 DEPred=-3.58D-03 R= 1.09D+00
 TightC=F SS=  1.41D+00  RLast= 1.85D-01 DXNew= 8.4853D-01 5.5523D-01
 Trust test= 1.09D+00 RLast= 1.85D-01 DXMaxT set to 5.55D-01
 ITU=  1  1  0
 Use linear search instead of GDIIS.
     Eigenvalues ---    0.01611   0.01637   0.02001   0.02017   0.02021
     Eigenvalues ---    0.02035   0.02041   0.02048   0.02051   0.02057
     Eigenvalues ---    0.02063   0.02090   0.02109   0.02167   0.02173
     Eigenvalues ---    0.02186   0.04872   0.04872   0.15785   0.16000
     Eigenvalues ---    0.16000   0.16019   0.16169   0.21503   0.22246
     Eigenvalues ---    0.23351   0.23894   0.24296   0.24998   0.25012
     Eigenvalues ---    0.25608   0.34737   0.34801   0.34996   0.35128
     Eigenvalues ---    0.35236   0.38163   0.39442   0.40180   0.40727
     Eigenvalues ---    0.41307   0.43336   0.43828   0.45023   0.45105
     Eigenvalues ---    0.45493   0.46080   0.46283   0.50823   1.28119
     Eigenvalues ---    1.34505
 RFO step:  Lambda=-5.40116979D-04 EMin= 1.61111674D-02
 Quartic linear search produced a step of -0.02516.
 Iteration  1 RMS(Cart)=  0.02555675 RMS(Int)=  0.00174568
 Iteration  2 RMS(Cart)=  0.00175937 RMS(Int)=  0.00000504
 Iteration  3 RMS(Cart)=  0.00000325 RMS(Int)=  0.00000476
 Iteration  4 RMS(Cart)=  0.00000000 RMS(Int)=  0.00000476
 Variable       Old X    -DE/DX   Delta X   Delta X   Delta X     New X
                                 (Linear)    (Quad)   (Total)
    R1        2.26933  -0.00099  -0.00035   0.00082   0.00047   2.26980
    R2        2.75577  -0.00091  -0.00021  -0.00126  -0.00147   2.75429
    R3        2.65695  -0.00059   0.00033  -0.00183  -0.00150   2.65545
    R4        2.71981   0.00064  -0.00043   0.00309   0.00266   2.72247
    R5        2.08085  -0.00023  -0.00016  -0.00002  -0.00019   2.08066
    R6        2.75086   0.00170  -0.00067   0.00658   0.00591   2.75677
    R7        2.64343  -0.00024   0.00025  -0.00122  -0.00097   2.64247
    R8        2.76263  -0.00093  -0.00032  -0.00096  -0.00128   2.76135
    R9        2.71917  -0.00064  -0.00029  -0.00025  -0.00054   2.71863
   R10        2.07915  -0.00026  -0.00008  -0.00034  -0.00043   2.07873
   R11        2.79440  -0.00298  -0.00058  -0.00436  -0.00494   2.78946
   R12        2.69380   0.00142  -0.00030   0.00389   0.00360   2.69740
   R13        2.78650   0.00551  -0.00145   0.01688   0.01542   2.80192
   R14        2.70756   0.00279  -0.00088   0.00900   0.00812   2.71567
   R15        2.69584  -0.00105  -0.00014  -0.00111  -0.00124   2.69460
   R16        2.09072   0.00017  -0.00023   0.00140   0.00117   2.09189
   R17        2.64071   0.00145   0.00011   0.00260   0.00272   2.64343
   R18        2.08535  -0.00086  -0.00011  -0.00182  -0.00193   2.08342
   R19        2.07438  -0.00038  -0.00011  -0.00061  -0.00072   2.07366
   R20        2.26848  -0.00092  -0.00034   0.00084   0.00050   2.26898
    A1        2.16906  -0.00064  -0.00077   0.00017  -0.00060   2.16847
    A2        2.06677   0.00061   0.00028   0.00206   0.00234   2.06910
    A3        2.04735   0.00002   0.00049  -0.00223  -0.00174   2.04561
    A4        2.10097   0.00155  -0.00043   0.00689   0.00646   2.10743
    A5        2.10463  -0.00089   0.00020  -0.00456  -0.00436   2.10027
    A6        2.07758  -0.00066   0.00023  -0.00233  -0.00210   2.07548
    A7        2.08280  -0.00027   0.00018  -0.00113  -0.00095   2.08185
    A8        2.10856  -0.00044   0.00030  -0.00286  -0.00256   2.10600
    A9        2.09182   0.00071  -0.00047   0.00399   0.00351   2.09534
   A10        2.12246   0.00071  -0.00025   0.00328   0.00303   2.12549
   A11        2.07235   0.00035   0.00005   0.00277   0.00281   2.07516
   A12        2.08838  -0.00107   0.00020  -0.00605  -0.00585   2.08253
   A13        2.10360  -0.00071  -0.00018  -0.00264  -0.00283   2.10077
   A14        2.12546  -0.00003  -0.00010   0.00121   0.00111   2.12656
   A15        2.05413   0.00075   0.00028   0.00143   0.00172   2.05585
   A16        2.01087   0.00157   0.00079   0.00265   0.00344   2.01431
   A17        2.05557   0.00003   0.00070  -0.00188  -0.00118   2.05439
   A18        2.21675  -0.00160  -0.00149  -0.00077  -0.00226   2.21449
   A19        1.88307   0.00146   0.00249  -0.00153   0.00093   1.88401
   A20        2.23369  -0.00199  -0.00156  -0.00267  -0.00424   2.22945
   A21        2.06766   0.00013   0.00013  -0.00177  -0.00163   2.06603
   A22        1.98184   0.00186   0.00143   0.00443   0.00587   1.98771
   A23        2.11287   0.00089  -0.00012   0.00406   0.00395   2.11683
   A24        2.10953  -0.00181   0.00005  -0.01000  -0.00996   2.09958
   A25        2.06078   0.00092   0.00006   0.00594   0.00600   2.06678
   A26        2.06586   0.00050   0.00040  -0.00053  -0.00011   2.06575
   A27        2.09376  -0.00028   0.00017  -0.00119  -0.00103   2.09273
   A28        2.12357  -0.00021  -0.00056   0.00172   0.00114   2.12471
   A29        3.13715   0.00228   0.00082   0.13130   0.13212   3.26926
   A30        3.17071  -0.00048  -0.00004  -0.00941  -0.00945   3.16126
   A31        3.14185  -0.00002  -0.00001  -0.00133  -0.00134   3.14051
   A32        3.14155   0.00000   0.00000   0.00010   0.00010   3.14165
    D1        3.14155   0.00000   0.00001   0.00001   0.00002   3.14157
    D2        0.00012   0.00000  -0.00001  -0.00014  -0.00015  -0.00003
    D3       -0.00012   0.00000   0.00001   0.00006   0.00007  -0.00005
    D4       -3.14155   0.00000   0.00000  -0.00010  -0.00010   3.14154
    D5       -0.00009   0.00000   0.00000   0.00007   0.00008  -0.00001
    D6        3.14148   0.00000   0.00000   0.00008   0.00008   3.14156
    D7        3.14158   0.00000  -0.00001   0.00003   0.00003  -3.14158
    D8       -0.00004   0.00000  -0.00001   0.00004   0.00003   0.00000
    D9       -3.14154   0.00000   0.00000  -0.00001  -0.00001  -3.14155
   D10        0.00008   0.00000   0.00000  -0.00008  -0.00008   0.00001
   D11       -0.00011   0.00000   0.00001   0.00015   0.00016   0.00004
   D12        3.14151   0.00000   0.00001   0.00008   0.00009  -3.14159
   D13        0.00008   0.00000  -0.00001  -0.00009  -0.00010  -0.00002
   D14       -3.14155   0.00000  -0.00001  -0.00007  -0.00008   3.14155
   D15       -3.14154   0.00000  -0.00001  -0.00003  -0.00004  -3.14158
   D16        0.00001   0.00000  -0.00001   0.00000  -0.00001   0.00000
   D17       -0.00005   0.00000   0.00000   0.00003   0.00003  -0.00002
   D18        3.14156   0.00000   0.00000   0.00000   0.00000   3.14156
   D19        3.14158   0.00000   0.00000   0.00001   0.00001  -3.14159
   D20        0.00001   0.00000   0.00000  -0.00003  -0.00002  -0.00001
[...]
 ! D14   D(4,5,6,16)           179.9992         -DE/DX =    0.0                 !
 ! D15   D(14,5,6,7)          -179.9997         -DE/DX =    0.0                 !
 ! D16   D(14,5,6,16)            0.0            -DE/DX =    0.0                 !
 ! D17   D(5,6,7,8)             -0.0002         -DE/DX =    0.0                 !
 ! D18   D(5,6,7,12)           179.9997         -DE/DX =    0.0                 !
 ! D19   D(16,6,7,8)           180.0001         -DE/DX =    0.0                 !
 ! D20   D(16,6,7,12)            0.0            -DE/DX =    0.0                 !
 ! D21   D(6,7,8,3)              0.0004         -DE/DX =    0.0                 !
 ! D22   D(6,7,8,9)           -179.999          -DE/DX =    0.0                 !
 ! D23   D(12,7,8,3)          -179.9995         -DE/DX =    0.0                 !
 ! D24   D(12,7,8,9)             0.001          -DE/DX =    0.0                 !
 ! D25   D(6,7,12,11)          179.9995         -DE/DX =    0.0                 !
 ! D26   D(6,7,12,19)           -0.0004         -DE/DX =    0.0                 !
 ! D27   D(8,7,12,11)           -0.0006         -DE/DX =    0.0                 !
 ! D28   D(8,7,12,19)          179.9996         -DE/DX =    0.0                 !
 ! D29   D(3,8,9,10)           180.0002         -DE/DX =    0.0                 !
 ! D30   D(7,8,9,10)            -0.0004         -DE/DX =    0.0                 !
 ! D31   D(8,9,10,11)           -0.0008         -DE/DX =    0.0                 !
 ! D32   D(8,9,10,17)          179.9996         -DE/DX =    0.0                 !
 ! D33   D(9,10,11,12)           0.0012         -DE/DX =    0.0                 !
 ! D34   D(9,10,11,18)        -179.999          -DE/DX =    0.0                 !
 ! D35   D(17,10,11,12)       -179.9991         -DE/DX =    0.0                 !
 ! D36   D(17,10,11,18)          0.0006         -DE/DX =    0.0                 !
 ! D37   D(10,11,12,7)          -0.0004         -DE/DX =    0.0                 !
 ! D38   D(10,11,12,19)        179.9994         -DE/DX =    0.0                 !
 ! D39   D(18,11,12,7)         179.9998         -DE/DX =    0.0                 !
 ! D40   D(18,11,12,19)         -0.0003         -DE/DX =    0.0                 !
 --------------------------------------------------------------------------------
 GradGradGradGradGradGradGradGradGradGradGradGradGradGradGradGradGradGrad

                          Input orientation:                          
 ---------------------------------------------------------------------
 Center     Atomic      Atomic             Coordinates (Angstroms)
 Number     Number       Type             X           Y           Z
 ---------------------------------------------------------------------
      1          7           0        1.135048   -0.153264   -0.059533
      2          6           0        2.333036   -0.076081   -0.060890
      3          6           0        4.562084   -1.182902   -0.062326
      4          6           0        3.788227   -0.010010   -0.061515
      5          6           0        4.466453    1.282091   -0.061313
      6          6           0        5.863625    1.321613   -0.061950
      7          6           0        6.655181    0.119703   -0.062793
      8          6           0        6.001164   -1.199149   -0.063000
      9          6           0        6.672523   -2.523688   -0.063815
     10          6           0        8.092356   -2.301668   -0.064385
     11          6           0        8.778341   -1.052931   -0.064241
     12          6           0        8.081273    0.159224   -0.063449
     13          7           0        3.089064    3.558032   -0.059789
     14          6           0        3.697569    2.523747   -0.060472
     15          1           0        4.047465   -2.155997   -0.062463
     16          1           0        6.368773    2.298732   -0.061807
     17          1           0        8.759429   -3.183900   -0.065021
     18          1           0        9.880524   -1.024645   -0.064753
     19          1           0        8.602686    1.124434   -0.063324
 ---------------------------------------------------------------------
                    Distance matrix (angstroms):
                    1          2          3          4          5
     1  N    0.000000
     2  C    1.200472   0.000000
     3  C    3.578371   2.488716   0.000000
     4  C    2.657045   1.456691   1.405179   0.000000
     5  C    3.627466   2.529052   2.466848   1.459287   0.000000
     6  C    4.953252   3.797185   2.822517   2.465866   1.397731
     7  C    5.526879   4.326578   2.465327   2.869887   2.478241
     8  C    4.977246   3.836203   1.439172   2.512199   2.917515
     9  C    6.023501   4.982162   2.500333   3.825930   4.398944
    10  C    7.281469   6.174384   3.703304   4.876189   5.098089
    11  C    7.696060   6.518911   4.218260   5.097933   4.903541
    12  C    6.953252   5.753053   3.766431   4.296381   3.785203
    13  N    4.194270   3.711921   4.964498   3.635898   2.660283
    14  C    3.705794   2.936164   3.806131   2.535379   1.460442
    15  H    3.534561   2.695426   1.100794   2.161588   3.463525
    16  H    5.779634   4.682618   3.922486   3.462586   2.156937
    17  H    8.204632   7.138424   4.649915   5.898003   6.194735
    18  H    8.788782   7.606863   5.320795   6.176210   5.884998
    19  H    7.576156   6.383553   4.652984   4.946309   4.139237
                    6          7          8          9         10
     6  C    0.000000
     7  C    1.439148   0.000000
     8  C    2.524512   1.472111   0.000000
     9  C    3.929460   2.643449   1.484967   0.000000
    10  C    4.253870   2.815762   2.364029   1.437087   0.000000
    11  C    3.759525   2.425465   2.781023   2.568579   1.424753
    12  C    2.503820   1.426640   2.484358   3.030280   2.460918
    13  N    3.563672   4.953716   5.577733   7.058931   7.705130
    14  C    2.477282   3.811417   4.377958   5.858922   6.526775
    15  H    3.923290   3.461068   2.175430   2.650684   4.047513
    16  H    1.099971   2.197770   3.517145   4.831977   4.912680
    17  H    5.355870   3.916844   3.398127   2.188849   1.106038
    18  H    4.651926   3.422335   3.883283   3.540961   2.197347
    19  H    2.746149   2.191405   3.488116   4.127266   3.463901
                   11         12         13         14         15
    11  C    0.000000
    12  C    1.398293   0.000000
    13  N    7.323173   6.039375   0.000000
    14  C    6.213443   4.980747   1.200010   0.000000
    15  H    4.857771   4.651006   5.793847   4.692807   0.000000
    16  H    4.127913   2.740466   3.513165   2.680664   5.023253
    17  H    2.131054   3.411214   8.809467   7.628872   4.822779
    18  H    1.102546   2.153799   8.192977   7.128817   5.941762
    19  H    2.184439   1.097041   6.026809   5.100809   5.613489
                   16         17         18         19
    16  H    0.000000
    17  H    5.981179   0.000000
    18  H    4.835001   2.432948   0.000000
    19  H    2.523756   4.311185   2.500282   0.000000
 Stoichiometry    C12H5N2(1-)
 Framework group  C1[X(C12H5N2)]
 Deg. of freedom    51
 Full point group                 C1      NOp   1
 Largest Abelian subgroup         C1      NOp   1
 Largest concise Abelian subgroup C1      NOp   1
                         Standard orientation:                         
 ---------------------------------------------------------------------
 Center     Atomic      Atomic             Coordinates (Angstroms)
 Number     Number       Type             X           Y           Z
 ---------------------------------------------------------------------
      1          7           0        3.590430   -2.094964   -0.000478
      2          6           0        2.565148   -1.470520    0.000277
      3          6           0        0.077025   -1.416200    0.000157
      4          6           0        1.306892   -0.736529    0.000160
      5          6           0        1.305926    0.722757    0.000052
      6          6           0        0.086737    1.406300   -0.000031
      7          6           0       -1.172278    0.709142   -0.000023
      8          6           0       -1.205171   -0.762602    0.000069
      9          6           0       -2.414644   -1.624170    0.000069
     10          6           0       -3.569192   -0.768462   -0.000029
     11          6           0       -3.597161    0.656016   -0.000098
     12          6           0       -2.417082    1.406109   -0.000101
     13          7           0        3.582380    2.099298    0.000043
     14          6           0        2.563308    1.465644    0.000047
     15          1           0        0.081153   -2.516986    0.000224
     16          1           0        0.092865    2.506254   -0.000099
     17          1           0       -4.569561   -1.240250   -0.000050
     18          1           0       -4.560281    1.192680   -0.000156
     19          1           0       -2.430890    2.503063   -0.000164
 ---------------------------------------------------------------------
 Rotational constants (GHZ):      1.4949718      0.4642519      0.3542442

 **********************************************************************

            Population analysis using the SCF density.

 **********************************************************************

 Orbital symmetries:
       Occupied  (A) (A) (A) (A) (A) (A) (A) (A) (A) (A) (A) (A)
                 (A) (A) (A) (A) (A) (A) (A) (A) (A) (A) (A) (A)
                 (A) (A) (A) (A) (A) (A) (A) (A) (A) (A) (A) (A)
                 (A) (A) (A) (A) (A) (A) (A) (A) (A) (A)
       Virtual   (A) (A) (A) (A) (A) (A) (A) (A) (A) (A) (A) (A)
                 (A) (A) (A) (A) (A) (A) (A) (A) (A) (A) (A) (A)
                 (A) (A) (A) (A) (A)
 The electronic state is 1-A.
 Alpha  occ. eigenvalues --  -13.99975 -13.98916  -9.91597  -9.90459  -9.90342
 Alpha  occ. eigenvalues --   -9.89430  -9.88411  -9.87351  -9.86116  -9.83881
 Alpha  occ. eigenvalues --   -9.83229  -9.82801  -9.78830  -9.66147  -0.73321
 Alpha  occ. eigenvalues --   -0.72234  -0.67326  -0.61635  -0.58204  -0.54636
 Alpha  occ. eigenvalues --   -0.50477  -0.44398  -0.43714  -0.38961  -0.34436
 Alpha  occ. eigenvalues --   -0.33747  -0.30178  -0.25891  -0.25685  -0.24016
 Alpha  occ. eigenvalues --   -0.21728  -0.20111  -0.18192  -0.16650  -0.16174
 Alpha  occ. eigenvalues --   -0.15811  -0.15365  -0.15286  -0.14168  -0.13344
 Alpha  occ. eigenvalues --   -0.10031  -0.08957  -0.07031  -0.02814   0.02390
 Alpha  occ. eigenvalues --    0.11542
 Alpha virt. eigenvalues --    0.17229   0.18424   0.25028   0.25903   0.28457
 Alpha virt. eigenvalues --    0.29148   0.31461   0.38547   0.41083   0.45688
 Alpha virt. eigenvalues --    0.46953   0.50854   0.53107   0.54540   0.58002
 Alpha virt. eigenvalues --    0.59948   0.61813   0.62986   0.67668   0.68899
 Alpha virt. eigenvalues --    0.70597   0.75467   0.78380   0.81832   0.84647
 Alpha virt. eigenvalues --    0.92727   0.93292   1.04030   1.08416
          Condensed to atoms (all electrons):
               1          2          3          4          5          6
     1  N    6.587500   0.659297  -0.000144  -0.010995  -0.000046  -0.000001
     2  C    0.659297   4.929982  -0.028176   0.424406  -0.028255   0.000758
     3  C   -0.000144  -0.028176   4.839933   0.503328  -0.028823  -0.009094
     4  C   -0.010995   0.424406   0.503328   4.790460   0.446018  -0.029640
     5  C   -0.000046  -0.028255  -0.028823   0.446018   4.771409   0.515054
     6  C   -0.000001   0.000758  -0.009094  -0.029640   0.515054   4.836215
     7  C    0.000000   0.000008  -0.034018  -0.007892  -0.026975   0.464259
     8  C   -0.000001   0.000765   0.465754  -0.024526  -0.007368  -0.022384
     9  C    0.000000  -0.000005  -0.034125   0.000727   0.000018   0.000554
    10  C    0.000000   0.000000   0.001435  -0.000015   0.000001   0.000046
    11  C    0.000000   0.000000   0.000012   0.000000  -0.000008   0.000839
    12  C    0.000000   0.000000   0.000877   0.000040   0.000757  -0.029996
    13  N   -0.000008  -0.000019  -0.000001  -0.000037  -0.010790  -0.000160
    14  C   -0.000015  -0.002126   0.000748  -0.027249   0.420698  -0.029243
    15  H    0.000058  -0.003559   0.383136  -0.026636   0.001275   0.000026
    16  H    0.000000  -0.000017   0.000008   0.001281  -0.026641   0.383911
    17  H    0.000000   0.000000  -0.000016   0.000000   0.000000   0.000001
    18  H    0.000000   0.000000   0.000001   0.000000   0.000000  -0.000018
    19  H    0.000000   0.000000  -0.000021  -0.000001   0.000012  -0.003515
               7          8          9         10         11         12
     1  N    0.000000  -0.000001   0.000000   0.000000   0.000000   0.000000
     2  C    0.000008   0.000765  -0.000005   0.000000   0.000000   0.000000
     3  C   -0.034018   0.465754  -0.034125   0.001435   0.000012   0.000877
     4  C   -0.007892  -0.024526   0.000727  -0.000015   0.000000   0.000040
     5  C   -0.026975  -0.007368   0.000018   0.000001  -0.000008   0.000757
     6  C    0.464259  -0.022384   0.000554   0.000046   0.000839  -0.029996
     7  C    4.823557   0.429854  -0.017413  -0.012461  -0.029393   0.480299
     8  C    0.429854   4.908021   0.390440  -0.029595  -0.013531  -0.030600
     9  C   -0.017413   0.390440   5.495178   0.439906  -0.017579  -0.005774
    10  C   -0.012461  -0.029595   0.439906   4.944476   0.473664  -0.030005
    11  C   -0.029393  -0.013531  -0.017579   0.473664   4.855168   0.511039
    12  C    0.480299  -0.030600  -0.005774  -0.030005   0.511039   4.870159
    13  N   -0.000001   0.000000   0.000000   0.000000   0.000000   0.000000
    14  C    0.000842   0.000010   0.000000   0.000000   0.000000  -0.000006
    15  H    0.001427  -0.024826  -0.001501   0.000032   0.000001  -0.000016
    16  H   -0.023557   0.001089  -0.000013  -0.000002   0.000016  -0.003416
    17  H    0.000007   0.002298  -0.032416   0.379492  -0.036043   0.001482
    18  H    0.001483   0.000095   0.001054  -0.023760   0.379985  -0.028332
    19  H   -0.025596   0.001153  -0.000006   0.001259  -0.024949   0.386508
              13         14         15         16         17         18
     1  N   -0.000008  -0.000015   0.000058   0.000000   0.000000   0.000000
     2  C   -0.000019  -0.002126  -0.003559  -0.000017   0.000000   0.000000
     3  C   -0.000001   0.000748   0.383136   0.000008  -0.000016   0.000001
     4  C   -0.000037  -0.027249  -0.026636   0.001281   0.000000   0.000000
     5  C   -0.010790   0.420698   0.001275  -0.026641   0.000000   0.000000
     6  C   -0.000160  -0.029243   0.000026   0.383911   0.000001  -0.000018
     7  C   -0.000001   0.000842   0.001427  -0.023557   0.000007   0.001483
     8  C    0.000000   0.000010  -0.024826   0.001089   0.002298   0.000095
     9  C    0.000000   0.000000  -0.001501  -0.000013  -0.032416   0.001054
    10  C    0.000000   0.000000   0.000032  -0.000002   0.379492  -0.023760
    11  C    0.000000   0.000000   0.000001   0.000016  -0.036043   0.379985
    12  C    0.000000  -0.000006  -0.000016  -0.003416   0.001482  -0.028332
    13  N    6.580283   0.660642   0.000000   0.000060   0.000000   0.000000
    14  C    0.660642   4.928765  -0.000016  -0.003696   0.000000   0.000000
    15  H    0.000000  -0.000016   0.591806   0.000002  -0.000003   0.000000
    16  H    0.000060  -0.003696   0.000002   0.605604   0.000000  -0.000002
    17  H    0.000000   0.000000  -0.000003   0.000000   0.675898  -0.003821
    18  H    0.000000   0.000000   0.000000  -0.000002  -0.003821   0.641907
    19  H    0.000000  -0.000001   0.000000   0.001023  -0.000041  -0.003710
              19
     1  N    0.000000
     2  C    0.000000
     3  C   -0.000021
     4  C   -0.000001
     5  C    0.000012
     6  C   -0.003515
     7  C   -0.025596
     8  C    0.001153
     9  C   -0.000006
    10  C    0.001259
    11  C   -0.024949
    12  C    0.386508
    13  N    0.000000
    14  C   -0.000001
    15  H    0.000000
    16  H    0.001023
    17  H   -0.000041
    18  H   -0.003710
    19  H    0.630418
 Mulliken charges:
               1
     1  N   -0.235646
     2  C    0.046941
     3  C   -0.060815
     4  C   -0.039270
     5  C   -0.026336
     6  C   -0.077611
     7  C   -0.024430
     8  C   -0.046647
     9  C   -0.219045
    10  C   -0.144472
    11  C   -0.099220
    12  C   -0.123015
    13  N   -0.229971
    14  C    0.050646
    15  H    0.078793
    16  H    0.064349
    17  H    0.013163
    18  H    0.035119
    19  H    0.037466
 Sum of Mulliken charges =  -1.00000
 Mulliken charges with hydrogens summed into heavy atoms:
               1
     1  N   -0.235646
     2  C    0.046941
     3  C    0.017978
     4  C   -0.039270
     5  C   -0.026336
     6  C   -0.013261
     7  C   -0.024430
     8  C   -0.046647
     9  C   -0.219045
    10  C   -0.131309
    11  C   -0.064101
    12  C   -0.085549
    13  N   -0.229971
    14  C    0.050646
 Electronic spatial extent (au):  <R**2>=           2889.2959
 Charge=             -1.0000 electrons
 Dipole moment (field-independent basis, Debye):
    X=             -0.5973    Y=              3.4415    Z=              0.0007  Tot=              3.4929
 Quadrupole moment (field-independent basis, Debye-Ang):
   XX=           -127.0183   YY=            -91.7689   ZZ=            -74.1570
   XY=             -8.8424   XZ=              0.0035   YZ=             -0.0019
 Traceless Quadrupole moment (field-independent basis, Debye-Ang):
   XX=            -29.3702   YY=              5.8791   ZZ=             23.4911
   XY=             -8.8424   XZ=              0.0035   YZ=             -0.0019
 Octapole moment (field-independent basis, Debye-Ang**2):
  XXX=            -63.7361  YYY=             22.8687  ZZZ=             -0.0009  XYY=            -18.3341
  XXY=             25.7143  XXZ=              0.0112  XZZ=              8.0470  YZZ=             -0.3342
  YYZ=              0.0029  XYZ=             -0.0090
 Hexadecapole moment (field-independent basis, Debye-Ang**3):
 XXXX=          -3441.0907 YYYY=           -979.2362 ZZZZ=            -58.3676 XXXY=            -66.4266
 XXXZ=              0.0468 YYYX=            -58.3556 YYYZ=             -0.0086 ZZZX=             -0.0040
 ZZZY=              0.0028 XXYY=           -858.0531 XXZZ=           -471.3409 YYZZ=           -161.5210
 XXYZ=             -0.0288 YYXZ=              0.0180 ZZXY=              0.6079
 N-N= 6.930961903189D+02 E-N=-2.708145924864D+03  KE= 5.547088888154D+02
 1\1\GINC-N053\FOpt\RB3LYP\STO-3G\C12H5N2(1-)\R2532\15-Jun-2021\0\\#N B
 3LYP/STO-3G OPT\\2Naph\\-1,1\N,1.1350477437,-0.1532640661,-0.059533028
 6\C,2.3330355802,-0.0760814465,-0.0608903358\C,4.5620836191,-1.1829015
 68,-0.0623264756\C,3.7882273719,-0.0100103786,-0.0615147452\C,4.466453
 1987,1.2820914474,-0.061313114\C,5.8636248473,1.3216127588,-0.06195012
 41\C,6.6551809025,0.1197034684,-0.0627925785\C,6.0011638952,-1.1991494
 092,-0.0630004625\C,6.6725227271,-2.5236882578,-0.0638145509\C,8.09235
 55174,-2.3016683578,-0.0643848477\C,8.7783405358,-1.0529308044,-0.0642
 407589\C,8.081273405,0.1592244929,-0.0634494938\N,3.0890643426,3.55803
 18071,-0.0597885721\C,3.6975694271,2.5237470894,-0.0604721332\H,4.0474
 654663,-2.1559969183,-0.0624628621\H,6.3687726903,2.2987317524,-0.0618
 073862\H,8.7594291975,-3.1839003454,-0.0650214748\H,9.8805238691,-1.02
 46449716,-0.0647526703\H,8.6026856633,1.1244337074,-0.0633243856\\Vers
 ion=ES64L-G09RevD.01\State=1-A\HF=-562.5078258\RMSD=3.568e-09\RMSF=3.7
 49e-05\Dipole=0.8366421,1.0901989,-0.0003376\Quadrupole=-10.7836499,-6
 .6813824,17.4650323,14.5159553,0.0228131,-0.0159979\PG=C01 [X(C12H5N2)
 ]\\@


 YOU ARE IN A MAZE OF TWISTY LITTLE PASSAGES.
 Job cpu time:       0 days  0 hours  4 minutes  1.2 seconds.
 File lengths (MBytes):  RWF=      5 Int=      0 D2E=      0 Chk=      2 Scr=      1
 Normal termination of Gaussian 09 at Tue Jun 15 11:13:00 2021.
