 Entering Gaussian System, Link 0=/usr/local/apps//g09/g09
 Input=28.com
 Output=28.out
 Initial command:
 /usr/local/apps//g09/l1.exe "/tmp/bnp.472653.sequoia/Gau-26457.inp" -scrdir="/tmp/bnp.472653.sequoia/"
 Entering Link 1 = /usr/local/apps//g09/l1.exe PID=     26458.
  
 Copyright (c) 1988,1990,1992,1993,1995,1998,2003,2009,2013,
            Gaussian, Inc.  All Rights Reserved.
  
 This is part of the Gaussian(R) 09 program.  It is based on
 the Gaussian(R) 03 system (copyright 2003, Gaussian, Inc.),
 the Gaussian(R) 98 system (copyright 1998, Gaussian, Inc.),
 the Gaussian(R) 94 system (copyright 1995, Gaussian, Inc.),
 the Gaussian 92(TM) system (copyright 1992, Gaussian, Inc.),
 the Gaussian 90(TM) system (copyright 1990, Gaussian, Inc.),
 the Gaussian 88(TM) system (copyright 1988, Gaussian, Inc.),
 the Gaussian 86(TM) system (copyright 1986, Carnegie Mellon
 University), and the Gaussian 82(TM) system (copyright 1983,
 Carnegie Mellon University). Gaussian is a federally registered
 trademark of Gaussian, Inc.
  
 This software contains proprietary and confidential information,
 including trade secrets, belonging to Gaussian, Inc.
  
 This software is provided under written license and may be
 used, copied, transmitted, or stored only in accord with that
 written license.
  
 The following legend is applicable only to US Government
 contracts under FAR:
  
                    RESTRICTED RIGHTS LEGEND
  
 Use, reproduction and disclosure by the US Government is
 subject to restrictions as set forth in subparagraphs (a)
 and (c) of the Commercial Computer Software - Restricted
 Rights clause in FAR 52.227-19.
  
 Gaussian, Inc.
 340 Quinnipiac St., Bldg. 40, Wallingford CT 06492
  
  
 ---------------------------------------------------------------
 Warning -- This program may not be used in any manner that
 competes with the business of Gaussian, Inc. or will provide
 assistance to any competitor of Gaussian, Inc.  The licensee
 of this program is prohibited from giving any competitor of
 Gaussian, Inc. access to this program.  By using this program,
 the user acknowledges that Gaussian, Inc. is engaged in the
 business of creating and licensing software in the field of
 computational chemistry and represents and warrants to the
 licensee that it is not a competitor of Gaussian, Inc. and that
 it will not use this program in any manner prohibited above.
 ---------------------------------------------------------------
  

 Cite this work as:
 Gaussian 09, Revision D.01,
 M. J. Frisch, G. W. Trucks, H. B. Schlegel, G. E. Scuseria, 
 M. A. Robb, J. R. Cheeseman, G. Scalmani, V. Barone, B. Mennucci, 
 G. A. Petersson, H. Nakatsuji, M. Caricato, X. Li, H. P. Hratchian, 
 A. F. Izmaylov, J. Bloino, G. Zheng, J. L. Sonnenberg, M. Hada, 
 M. Ehara, K. Toyota, R. Fukuda, J. Hasegawa, M. Ishida, T. Nakajima, 
 Y. Honda, O. Kitao, H. Nakai, T. Vreven, J. A. Montgomery, Jr., 
 J. E. Peralta, F. Ogliaro, M. Bearpark, J. J. Heyd, E. Brothers, 
 K. N. Kudin, V. N. Staroverov, T. Keith, R. Kobayashi, J. Normand, 
 K. Raghavachari, A. Rendell, J. C. Burant, S. S. Iyengar, J. Tomasi, 
 M. Cossi, N. Rega, J. M. Millam, M. Klene, J. E. Knox, J. B. Cross, 
 V. Bakken, C. Adamo, J. Jaramillo, R. Gomperts, R. E. Stratmann, 
 O. Yazyev, A. J. Austin, R. Cammi, C. Pomelli, J. W. Ochterski, 
 R. L. Martin, K. Morokuma, V. G. Zakrzewski, G. A. Voth, 
 P. Salvador, J. J. Dannenberg, S. Dapprich, A. D. Daniels, 
 O. Farkas, J. B. Foresman, J. V. Ortiz, J. Cioslowski, 
 and D. J. Fox, Gaussian, Inc., Wallingford CT, 2013.
 
 ******************************************
 Gaussian 09:  ES64L-G09RevD.01 24-Apr-2013
                15-Jun-2021 
 ******************************************
 -------------------
 #N B3LYP/STO-3G OPT
 -------------------
 1/14=-1,18=20,19=15,26=3,38=1/1,3;
 2/9=110,12=2,17=6,18=5,40=1/2;
 3/6=3,11=2,16=1,25=1,30=1,71=1,74=-5/1,2,3;
 4//1;
 5/5=2,38=5/2;
 6/7=2,8=2,9=2,10=2,28=1/1;
 7//1,2,3,16;
 1/14=-1,18=20,19=15,26=3/3(2);
 2/9=110/2;
 99//99;
 2/9=110/2;
 3/6=3,11=2,16=1,25=1,30=1,71=1,74=-5/1,2,3;
 4/5=5,16=3,69=1/1;
 5/5=2,38=5/2;
 7//1,2,3,16;
 1/14=-1,18=20,19=15,26=3/3(-5);
 2/9=110/2;
 6/7=2,8=2,9=2,10=2,19=2,28=1/1;
 99/9=1/99;
 -----
 2Naph
 -----
 Symbolic Z-matrix:
 Charge = -1 Multiplicity = 1
 N                     1.24644  -0.30436   0.02461 
 C                     2.4055   -0.27883   0.02425 
 C                     4.60502  -1.40042   0.02287 
 C                     3.8413   -0.22349   0.02371 
 C                     4.47977   1.01755   0.0242 
 C                     5.8737    1.08556   0.02361 
 C                     6.64884  -0.08216   0.02262 
 C                     6.0156   -1.34901   0.02237 
 C                     6.8195   -2.51004   0.02198 
 C                     8.2181   -2.40869   0.02166 
 C                     8.82322  -1.15709   0.02184 
 C                     8.04765  -0.00206   0.02228 
 N                     9.76983  -4.48505   0.02097 
 C                     9.06164  -3.56389   0.02133 
 H                     4.09505  -2.36374   0.02284 
 H                     3.90302   1.94147   0.02524 
 H                     6.35144   2.06381   0.02437 
 H                     6.35416  -3.49515   0.02209 
 H                     8.55317   0.96059   0.0224 
 

 GradGradGradGradGradGradGradGradGradGradGradGradGradGradGradGradGradGrad
 Berny optimization.
 Initialization pass.
                           ----------------------------
                           !    Initial Parameters    !
                           ! (Angstroms and Degrees)  !
 --------------------------                            --------------------------
 ! Name  Definition              Value          Derivative Info.                !
 --------------------------------------------------------------------------------
 ! R1    R(1,2)                  1.1593         estimate D2E/DX2                !
 ! R2    R(2,4)                  1.4369         estimate D2E/DX2                !
 ! R3    R(3,4)                  1.403          estimate D2E/DX2                !
 ! R4    R(3,8)                  1.4115         estimate D2E/DX2                !
 ! R5    R(3,15)                 1.09           estimate D2E/DX2                !
 ! R6    R(4,5)                  1.3956         estimate D2E/DX2                !
 ! R7    R(5,6)                  1.3956         estimate D2E/DX2                !
 ! R8    R(5,16)                 1.0892         estimate D2E/DX2                !
 ! R9    R(6,7)                  1.4016         estimate D2E/DX2                !
 ! R10   R(6,17)                 1.0887         estimate D2E/DX2                !
 ! R11   R(7,8)                  1.4163         estimate D2E/DX2                !
 ! R12   R(7,12)                 1.4011         estimate D2E/DX2                !
 ! R13   R(8,9)                  1.4122         estimate D2E/DX2                !
 ! R14   R(9,10)                 1.4023         estimate D2E/DX2                !
 ! R15   R(9,18)                 1.0895         estimate D2E/DX2                !
 ! R16   R(10,11)                1.3902         estimate D2E/DX2                !
 ! R17   R(10,14)                1.4304         estimate D2E/DX2                !
 ! R18   R(11,12)                1.3913         estimate D2E/DX2                !
 ! R19   R(12,19)                1.0873         estimate D2E/DX2                !
 ! R20   R(13,14)                1.1619         estimate D2E/DX2                !
 ! A1    A(4,3,8)              120.8926         estimate D2E/DX2                !
 ! A2    A(4,3,15)             119.1239         estimate D2E/DX2                !
 ! A3    A(8,3,15)             119.9835         estimate D2E/DX2                !
 ! A4    A(2,4,3)              120.7726         estimate D2E/DX2                !
 ! A5    A(2,4,5)              119.4314         estimate D2E/DX2                !
 ! A6    A(3,4,5)              119.7959         estimate D2E/DX2                !
 ! A7    A(4,5,6)              120.0174         estimate D2E/DX2                !
 ! A8    A(4,5,16)             120.8017         estimate D2E/DX2                !
 ! A9    A(6,5,16)             119.1809         estimate D2E/DX2                !
 ! A10   A(5,6,7)              120.7832         estimate D2E/DX2                !
 ! A11   A(5,6,17)             118.8223         estimate D2E/DX2                !
 ! A12   A(7,6,17)             120.3944         estimate D2E/DX2                !
 ! A13   A(6,7,8)              119.8652         estimate D2E/DX2                !
 ! A14   A(6,7,12)             120.2991         estimate D2E/DX2                !
 ! A15   A(8,7,12)             119.8357         estimate D2E/DX2                !
 ! A16   A(3,8,7)              118.6456         estimate D2E/DX2                !
 ! A17   A(3,8,9)              122.6115         estimate D2E/DX2                !
 ! A18   A(7,8,9)              118.7428         estimate D2E/DX2                !
 ! A19   A(8,9,10)             120.5541         estimate D2E/DX2                !
 ! A20   A(8,9,18)             120.0164         estimate D2E/DX2                !
 ! A21   A(10,9,18)            119.4295         estimate D2E/DX2                !
 ! A22   A(9,10,11)            119.9474         estimate D2E/DX2                !
 ! A23   A(9,10,14)            121.9926         estimate D2E/DX2                !
 ! A24   A(11,10,14)           118.06           estimate D2E/DX2                !
 ! A25   A(10,11,12)           120.3171         estimate D2E/DX2                !
 ! A26   A(7,12,11)            120.6029         estimate D2E/DX2                !
 ! A27   A(7,12,19)            120.9828         estimate D2E/DX2                !
 ! A28   A(11,12,19)           118.4143         estimate D2E/DX2                !
 ! A29   L(1,2,4,16,-1)        179.0546         estimate D2E/DX2                !
 ! A30   L(10,14,13,18,-1)     181.4158         estimate D2E/DX2                !
 ! A31   L(1,2,4,16,-2)        180.0054         estimate D2E/DX2                !
 ! A32   L(10,14,13,18,-2)     179.9945         estimate D2E/DX2                !
 ! D1    D(8,3,4,2)           -179.9985         estimate D2E/DX2                !
 ! D2    D(8,3,4,5)             -0.0067         estimate D2E/DX2                !
 ! D3    D(15,3,4,2)            -0.0127         estimate D2E/DX2                !
 ! D4    D(15,3,4,5)           179.9792         estimate D2E/DX2                !
 ! D5    D(4,3,8,7)             -0.0052         estimate D2E/DX2                !
 ! D6    D(4,3,8,9)            179.978          estimate D2E/DX2                !
 ! D7    D(15,3,8,7)          -179.9909         estimate D2E/DX2                !
 ! D8    D(15,3,8,9)            -0.0077         estimate D2E/DX2                !
 ! D9    D(2,4,5,6)           -179.9965         estimate D2E/DX2                !
 ! D10   D(2,4,5,16)             0.0156         estimate D2E/DX2                !
 ! D11   D(3,4,5,6)              0.0116         estimate D2E/DX2                !
 ! D12   D(3,4,5,16)          -179.9763         estimate D2E/DX2                !
 ! D13   D(4,5,6,7)             -0.0045         estimate D2E/DX2                !
 ! D14   D(4,5,6,17)          -179.9782         estimate D2E/DX2                !
 ! D15   D(16,5,6,7)           179.9835         estimate D2E/DX2                !
 ! D16   D(16,5,6,17)            0.0098         estimate D2E/DX2                !
 ! D17   D(5,6,7,8)             -0.0075         estimate D2E/DX2                !
 ! D18   D(5,6,7,12)          -179.9884         estimate D2E/DX2                !
 ! D19   D(17,6,7,8)           179.9658         estimate D2E/DX2                !
 ! D20   D(17,6,7,12)           -0.0151         estimate D2E/DX2                !
 ! D21   D(6,7,8,3)              0.0122         estimate D2E/DX2                !
 ! D22   D(6,7,8,9)           -179.9716         estimate D2E/DX2                !
 ! D23   D(12,7,8,3)           179.9932         estimate D2E/DX2                !
 ! D24   D(12,7,8,9)             0.0093         estimate D2E/DX2                !
 ! D25   D(6,7,12,11)          179.9741         estimate D2E/DX2                !
 ! D26   D(6,7,12,19)           -0.023          estimate D2E/DX2                !
 ! D27   D(8,7,12,11)           -0.0068         estimate D2E/DX2                !
 ! D28   D(8,7,12,19)          179.9961         estimate D2E/DX2                !
 ! D29   D(3,8,9,10)          -179.9919         estimate D2E/DX2                !
 ! D30   D(3,8,9,18)            -0.0019         estimate D2E/DX2                !
 ! D31   D(7,8,9,10)            -0.0087         estimate D2E/DX2                !
 ! D32   D(7,8,9,18)           179.9813         estimate D2E/DX2                !
 ! D33   D(8,9,10,11)            0.0054         estimate D2E/DX2                !
 ! D34   D(8,9,10,14)          179.9968         estimate D2E/DX2                !
 ! D35   D(18,9,10,11)        -179.9846         estimate D2E/DX2                !
 ! D36   D(18,9,10,14)           0.0067         estimate D2E/DX2                !
 ! D37   D(9,10,11,12)          -0.0027         estimate D2E/DX2                !
 ! D38   D(14,10,11,12)       -179.9944         estimate D2E/DX2                !
 ! D39   D(10,11,12,7)           0.0034         estimate D2E/DX2                !
 ! D40   D(10,11,12,19)       -179.9994         estimate D2E/DX2                !
 --------------------------------------------------------------------------------
 Trust Radius=3.00D-01 FncErr=1.00D-07 GrdErr=1.00D-06
 Number of steps in this run=    102 maximum allowed number of steps=    114.
 GradGradGradGradGradGradGradGradGradGradGradGradGradGradGradGradGradGrad

                          Input orientation:                          
 ---------------------------------------------------------------------
 Center     Atomic      Atomic             Coordinates (Angstroms)
 Number     Number       Type             X           Y           Z
 ---------------------------------------------------------------------
      1          7           0        1.246440   -0.304360    0.024610
      2          6           0        2.405500   -0.278830    0.024250
      3          6           0        4.605020   -1.400420    0.022870
      4          6           0        3.841300   -0.223490    0.023710
      5          6           0        4.479770    1.017550    0.024200
      6          6           0        5.873700    1.085560    0.023610
      7          6           0        6.648840   -0.082160    0.022620
      8          6           0        6.015600   -1.349010    0.022370
      9          6           0        6.819500   -2.510040    0.021980
     10          6           0        8.218100   -2.408690    0.021660
     11          6           0        8.823220   -1.157090    0.021840
     12          6           0        8.047650   -0.002060    0.022280
     13          7           0        9.769830   -4.485050    0.020970
     14          6           0        9.061640   -3.563890    0.021330
     15          1           0        4.095050   -2.363740    0.022840
     16          1           0        3.903020    1.941470    0.025240
     17          1           0        6.351440    2.063810    0.024370
     18          1           0        6.354160   -3.495150    0.022090
     19          1           0        8.553170    0.960590    0.022400
 ---------------------------------------------------------------------
                    Distance matrix (angstroms):
                    1          2          3          4          5
     1  N    0.000000
     2  C    1.159341   0.000000
     3  C    3.532904   2.468978   0.000000
     4  C    2.596120   1.436866   1.403009   0.000000
     5  C    3.493117   2.446057   2.421212   1.395645   0.000000
     6  C    4.831502   3.726925   2.790994   2.417491   1.395588
     7  C    5.406968   4.247895   2.432079   2.811095   2.431919
     8  C    4.882232   3.765383   1.411517   2.448342   2.821238
     9  C    5.993666   4.945877   2.476929   3.754729   4.232993
    10  C    7.282325   6.190527   3.751127   4.891981   5.070921
    11  C    7.624615   6.477536   4.225213   5.068643   4.857430
    12  C    6.807925   5.648935   3.715792   4.212174   3.710711
    13  N    9.493490   8.480899   6.015830   7.301258   7.633043
    14  C    8.467697   7.422656   4.953995   6.197599   6.479439
    15  H    3.515057   2.683548   1.089979   2.155240   3.403106
    16  H    3.478674   2.678115   3.414826   2.165840   1.089160
    17  H    5.627544   4.588944   3.879546   3.395960   2.144250
    18  H    6.022454   5.092802   2.728990   4.125315   4.886492
    19  H    7.415417   6.271364   4.600245   4.858371   4.073799
                    6          7          8          9         10
     6  C    0.000000
     7  C    1.401575   0.000000
     8  C    2.438702   1.416299   0.000000
     9  C    3.717913   2.433871   1.412178   0.000000
    10  C    4.207850   2.806300   2.444162   1.402267   0.000000
    11  C    3.705287   2.425573   2.814172   2.417719   1.390206
    12  C    2.430839   1.401102   2.437930   2.792547   2.412659
    13  N    6.797906   5.396853   4.891727   3.550368   2.592130
    14  C    5.637406   4.236042   3.766172   2.477457   1.430401
    15  H    3.880885   3.424537   2.172139   2.728375   4.123295
    16  H    2.148526   3.410955   3.910276   5.321824   6.127301
    17  H    1.088673   2.166480   3.429305   4.597737   4.846409
    18  H    4.605838   3.425688   2.172680   1.089488   2.157468
    19  H    2.682383   2.171129   3.431255   3.879547   3.385900
                   11         12         13         14         15
    11  C    0.000000
    12  C    1.391260   0.000000
    13  N    3.459970   4.802406   0.000000
    14  C    2.418580   3.703351   1.161925   0.000000
    15  H    4.879713   4.604409   6.058307   5.109538   0.000000
    16  H    5.814590   4.577693   8.701703   7.544559   4.309491
    17  H    4.060037   2.673004   7.387352   6.246295   4.969356
    18  H    3.400409   3.881956   3.556221   2.708353   2.526592
    19  H    2.134829   1.087311   5.579898   4.552962   5.561115
                   16         17         18         19
    16  H    0.000000
    17  H    2.451475   0.000000
    18  H    5.963634   5.558961   0.000000
    19  H    4.752476   2.462664   4.968829   0.000000
 Stoichiometry    C12H5N2(1-)
 Framework group  C1[X(C12H5N2)]
 Deg. of freedom    51
 Full point group                 C1      NOp   1
 Largest Abelian subgroup         C1      NOp   1
 Largest concise Abelian subgroup C1      NOp   1
                         Standard orientation:                         
 ---------------------------------------------------------------------
 Center     Atomic      Atomic             Coordinates (Angstroms)
 Number     Number       Type             X           Y           Z
 ---------------------------------------------------------------------
      1          7           0       -4.689782   -1.490410    0.000082
      2          6           0       -3.667468   -0.943650    0.000079
      3          6           0       -1.198497   -0.949725   -0.000285
      4          6           0       -2.411784   -0.245192   -0.000026
      5          6           0       -2.403333    1.150427    0.000303
      6          6           0       -1.190724    1.841258    0.000131
      7          6           0        0.028586    1.150102   -0.000276
      8          6           0        0.036467   -0.266174   -0.000357
      9          6           0        1.278406   -0.938361   -0.000157
     10          6           0        2.480108   -0.215680   -0.000067
     11          6           0        2.454039    1.174281   -0.000061
     12          6           0        1.240082    1.853923   -0.000200
     13          7           0        4.802896   -1.366241    0.000334
     14          6           0        3.754769   -0.864746    0.000204
     15          1           0       -1.217882   -2.039532   -0.000195
     16          1           0       -3.335466    1.713806    0.000894
     17          1           0       -1.206838    2.929811    0.000757
     18          1           0        1.308681   -2.027427    0.000094
     19          1           0        1.255800    2.941121   -0.000201
 ---------------------------------------------------------------------
 Rotational constants (GHZ):      1.9496473      0.3781119      0.3166929
 Standard basis: STO-3G (5D, 7F)
 There are    75 symmetry adapted cartesian basis functions of A   symmetry.
 There are    75 symmetry adapted basis functions of A   symmetry.
    75 basis functions,   225 primitive gaussians,    75 cartesian basis functions
    46 alpha electrons       46 beta electrons
       nuclear repulsion energy       695.4124073997 Hartrees.
 NAtoms=   19 NActive=   19 NUniq=   19 SFac= 1.00D+00 NAtFMM=   60 NAOKFM=F Big=F
 Integral buffers will be    131072 words long.
 Raffenetti 2 integral format.
 Two-electron integral symmetry is turned on.
 One-electron integrals computed using PRISM.
 NBasis=    75 RedAO= T EigKep=  1.55D-01  NBF=    75
 NBsUse=    75 1.00D-06 EigRej= -1.00D+00 NBFU=    75
 ExpMin= 1.69D-01 ExpMax= 9.91D+01 ExpMxC= 9.91D+01 IAcc=1 IRadAn=         1 AccDes= 0.00D+00
 Harris functional with IExCor=  402 and IRadAn=       1 diagonalized for initial guess.
 HarFok:  IExCor=  402 AccDes= 0.00D+00 IRadAn=         1 IDoV= 1 UseB2=F ITyADJ=14
 ICtDFT=  3500011 ScaDFX=  1.000000  1.000000  1.000000  1.000000
 FoFCou: FMM=F IPFlag=           0 FMFlag=      100000 FMFlg1=           0
         NFxFlg=           0 DoJE=T BraDBF=F KetDBF=T FulRan=T
         wScrn=  0.000000 ICntrl=     500 IOpCl=  0 I1Cent=   200000004 NGrid=           0
         NMat0=    1 NMatS0=      1 NMatT0=    0 NMatD0=    1 NMtDS0=    0 NMtDT0=    0
 Petite list used in FoFCou.
 Keep R1 ints in memory in canonical form, NReq=4993994.
 Requested convergence on RMS density matrix=1.00D-08 within 128 cycles.
 Requested convergence on MAX density matrix=1.00D-06.
 Requested convergence on             energy=1.00D-06.
 No special actions if energy rises.
 Integral accuracy reduced to 1.0D-05 until final iterations.
 EnCoef did     5 forward-backward iterations
 EnCoef did     4 forward-backward iterations
 EnCoef did   100 forward-backward iterations
 Rare condition: small coef for last iteration:  0.000D+00
 Rare condition: small coef for last iteration:  0.000D+00
 Initial convergence to 1.0D-05 achieved.  Increase integral accuracy.
 SCF Done:  E(RB3LYP) =  -562.481302522     A.U. after   28 cycles
            NFock= 28  Conv=0.78D-08     -V/T= 2.0128

 **********************************************************************

            Population analysis using the SCF density.

 **********************************************************************

 Orbital symmetries:
       Occupied  (A) (A) (A) (A) (A) (A) (A) (A) (A) (A) (A) (A)
                 (A) (A) (A) (A) (A) (A) (A) (A) (A) (A) (A) (A)
                 (A) (A) (A) (A) (A) (A) (A) (A) (A) (A) (A) (A)
                 (A) (A) (A) (A) (A) (A) (A) (A) (A) (A)
       Virtual   (A) (A) (A) (A) (A) (A) (A) (A) (A) (A) (A) (A)
                 (A) (A) (A) (A) (A) (A) (A) (A) (A) (A) (A) (A)
                 (A) (A) (A) (A) (A)
 The electronic state is 1-A.
 Alpha  occ. eigenvalues --  -14.00393 -13.95329  -9.91208  -9.91044  -9.89121
 Alpha  occ. eigenvalues --   -9.88258  -9.87339  -9.87015  -9.86250  -9.86195
 Alpha  occ. eigenvalues --   -9.85123  -9.84837  -9.79385  -9.64514  -0.75615
 Alpha  occ. eigenvalues --   -0.70981  -0.69410  -0.63251  -0.59473  -0.56063
 Alpha  occ. eigenvalues --   -0.51803  -0.46261  -0.42806  -0.41737  -0.35638
 Alpha  occ. eigenvalues --   -0.34427  -0.30458  -0.27465  -0.26118  -0.24083
 Alpha  occ. eigenvalues --   -0.22878  -0.22582  -0.20183  -0.18429  -0.17770
 Alpha  occ. eigenvalues --   -0.16006  -0.15728  -0.15653  -0.14308  -0.11939
 Alpha  occ. eigenvalues --   -0.10676  -0.09863  -0.08854  -0.02781   0.01179
 Alpha  occ. eigenvalues --    0.15036
 Alpha virt. eigenvalues --    0.16583   0.20244   0.26261   0.26466   0.30697
 Alpha virt. eigenvalues --    0.31150   0.34967   0.40225   0.43958   0.48881
 Alpha virt. eigenvalues --    0.49581   0.53042   0.54166   0.55816   0.59798
 Alpha virt. eigenvalues --    0.61926   0.63231   0.64384   0.69117   0.73186
 Alpha virt. eigenvalues --    0.74137   0.78883   0.80553   0.84916   0.89616
 Alpha virt. eigenvalues --    0.98000   0.99635   1.13284   1.17990
          Condensed to atoms (all electrons):
               1          2          3          4          5          6
     1  N    6.574949   0.688465  -0.000132  -0.011569  -0.000158  -0.000001
     2  C    0.688465   4.892239  -0.029968   0.428526  -0.032332   0.001033
     3  C   -0.000132  -0.029968   4.821880   0.506212  -0.031144  -0.011829
     4  C   -0.011569   0.428526   0.506212   4.762260   0.478622  -0.030855
     5  C   -0.000158  -0.032332  -0.031144   0.478622   4.829259   0.522884
     6  C   -0.000001   0.001033  -0.011829  -0.030855   0.522884   4.834244
     7  C    0.000000   0.000015  -0.029225  -0.010203  -0.029446   0.471623
     8  C   -0.000001   0.000925   0.486088  -0.028878  -0.009676  -0.029191
     9  C    0.000000  -0.000007  -0.029847   0.000838   0.000034   0.001055
    10  C    0.000000   0.000000   0.000797  -0.000008   0.000000   0.000049
    11  C    0.000000   0.000000   0.000009   0.000000  -0.000016   0.001145
    12  C    0.000000   0.000000   0.000992   0.000048   0.000953  -0.033426
    13  N    0.000000   0.000000   0.000000   0.000000   0.000000   0.000000
    14  C    0.000000   0.000000  -0.000007   0.000000   0.000000   0.000000
    15  H    0.000064  -0.003720   0.388323  -0.026354   0.001412   0.000047
    16  H    0.000059  -0.003785   0.001399  -0.025751   0.389810  -0.025788
    17  H    0.000000  -0.000021   0.000035   0.001482  -0.027596   0.390962
    18  H    0.000000  -0.000001  -0.003886   0.000017  -0.000001  -0.000017
    19  H    0.000000   0.000000  -0.000023  -0.000001   0.000009  -0.003960
               7          8          9         10         11         12
     1  N    0.000000  -0.000001   0.000000   0.000000   0.000000   0.000000
     2  C    0.000015   0.000925  -0.000007   0.000000   0.000000   0.000000
     3  C   -0.029225   0.486088  -0.029847   0.000797   0.000009   0.000992
     4  C   -0.010203  -0.028878   0.000838  -0.000008   0.000000   0.000048
     5  C   -0.029446  -0.009676   0.000034   0.000000  -0.000016   0.000953
     6  C    0.471623  -0.029191   0.001055   0.000049   0.001145  -0.033426
     7  C    4.805119   0.462684  -0.029974  -0.012229  -0.028860   0.474783
     8  C    0.462684   4.783626   0.486136  -0.029784  -0.011641  -0.032345
     9  C   -0.029974   0.486136   4.871680   0.492758  -0.030336  -0.013578
    10  C   -0.012229  -0.029784   0.492758   4.804178   0.453236  -0.029041
    11  C   -0.028860  -0.011641  -0.030336   0.453236   5.429154   0.490824
    12  C    0.474783  -0.032345  -0.013578  -0.029041   0.490824   4.893366
    13  N    0.000000  -0.000001   0.000047  -0.010940  -0.000159  -0.000002
    14  C   -0.000031   0.000879  -0.039584   0.415864  -0.038656   0.001453
    15  H    0.001422  -0.024581  -0.003618   0.000018   0.000000  -0.000020
    16  H    0.001481   0.000033   0.000001   0.000000   0.000000  -0.000022
    17  H   -0.025662   0.001402  -0.000021   0.000001   0.000037  -0.004381
    18  H    0.001356  -0.026733   0.379682  -0.025571   0.001612   0.000104
    19  H   -0.033376   0.001278  -0.000043   0.002177  -0.037293   0.387773
              13         14         15         16         17         18
     1  N    0.000000   0.000000   0.000064   0.000059   0.000000   0.000000
     2  C    0.000000   0.000000  -0.003720  -0.003785  -0.000021  -0.000001
     3  C    0.000000  -0.000007   0.388323   0.001399   0.000035  -0.003886
     4  C    0.000000   0.000000  -0.026354  -0.025751   0.001482   0.000017
     5  C    0.000000   0.000000   0.001412   0.389810  -0.027596  -0.000001
     6  C    0.000000   0.000000   0.000047  -0.025788   0.390962  -0.000017
     7  C    0.000000  -0.000031   0.001422   0.001481  -0.025662   0.001356
     8  C   -0.000001   0.000879  -0.024581   0.000033   0.001402  -0.026733
     9  C    0.000047  -0.039584  -0.003618   0.000001  -0.000021   0.379682
    10  C   -0.010940   0.415864   0.000018   0.000000   0.000001  -0.025571
    11  C   -0.000159  -0.038656   0.000000   0.000000   0.000037   0.001612
    12  C   -0.000002   0.001453  -0.000020  -0.000022  -0.004381   0.000104
    13  N    6.600271   0.685835   0.000000   0.000000   0.000000   0.000033
    14  C    0.685835   4.915802  -0.000001   0.000000   0.000000  -0.002285
    15  H    0.000000  -0.000001   0.596928  -0.000038   0.000002   0.000969
    16  H    0.000000   0.000000  -0.000038   0.605451  -0.004023   0.000000
    17  H    0.000000   0.000000   0.000002  -0.004023   0.605138   0.000001
    18  H    0.000033  -0.002285   0.000969   0.000000   0.000001   0.627455
    19  H    0.000000  -0.000004   0.000001   0.000000   0.001293   0.000005
              19
     1  N    0.000000
     2  C    0.000000
     3  C   -0.000023
     4  C   -0.000001
     5  C    0.000009
     6  C   -0.003960
     7  C   -0.033376
     8  C    0.001278
     9  C   -0.000043
    10  C    0.002177
    11  C   -0.037293
    12  C    0.387773
    13  N    0.000000
    14  C   -0.000004
    15  H    0.000001
    16  H    0.000000
    17  H    0.001293
    18  H    0.000005
    19  H    0.656086
 Mulliken charges:
               1
     1  N   -0.251676
     2  C    0.058629
     3  C   -0.069672
     4  C   -0.044387
     5  C   -0.092612
     6  C   -0.087976
     7  C   -0.019478
     8  C   -0.030220
     9  C   -0.085224
    10  C   -0.061505
    11  C   -0.229057
    12  C   -0.137480
    13  N   -0.275083
    14  C    0.060734
    15  H    0.069145
    16  H    0.061172
    17  H    0.061349
    18  H    0.047261
    19  H    0.026080
 Sum of Mulliken charges =  -1.00000
 Mulliken charges with hydrogens summed into heavy atoms:
               1
     1  N   -0.251676
     2  C    0.058629
     3  C   -0.000527
     4  C   -0.044387
     5  C   -0.031440
     6  C   -0.026627
     7  C   -0.019478
     8  C   -0.030220
     9  C   -0.037963
    10  C   -0.061505
    11  C   -0.229057
    12  C   -0.111400
    13  N   -0.275083
    14  C    0.060734
 Electronic spatial extent (au):  <R**2>=           3158.0194
 Charge=             -1.0000 electrons
 Dipole moment (field-independent basis, Debye):
    X=             -5.7259    Y=              0.0667    Z=              0.0000  Tot=              5.7263
 Quadrupole moment (field-independent basis, Debye-Ang):
   XX=           -149.7858   YY=            -82.5163   ZZ=            -73.7992
   XY=             -8.5033   XZ=             -0.0030   YZ=              0.0019
 Traceless Quadrupole moment (field-independent basis, Debye-Ang):
   XX=            -47.7520   YY=             19.5175   ZZ=             28.2346
   XY=             -8.5033   XZ=             -0.0030   YZ=              0.0019
 Octapole moment (field-independent basis, Debye-Ang**2):
  XXX=            -73.4707  YYY=             -4.5622  ZZZ=              0.0013  XYY=            -15.7525
  XXY=             78.7189  XXZ=             -0.0130  XZZ=              0.8421  YZZ=             -3.0990
  YYZ=              0.0029  XYZ=              0.0003
 Hexadecapole moment (field-independent basis, Debye-Ang**3):
 XXXX=          -4991.7761 YYYY=           -736.4277 ZZZZ=            -57.9633 XXXY=            -76.0149
 XXXZ=             -0.0698 YYYX=            -33.0356 YYYZ=              0.0116 ZZZX=              0.0032
 ZZZY=             -0.0016 XXYY=           -860.2516 XXZZ=           -537.9844 YYZZ=           -135.8167
 XXYZ=              0.0319 YYXZ=             -0.0101 ZZXY=              0.5454
 N-N= 6.954124073997D+02 E-N=-2.712756552814D+03  KE= 5.553607854380D+02
 Calling FoFJK, ICntrl=      2127 FMM=F ISym2X=0 I1Cent= 0 IOpClX= 0 NMat=1 NMatS=1 NMatT=0.
 ***** Axes restored to original set *****
 -------------------------------------------------------------------
 Center     Atomic                   Forces (Hartrees/Bohr)
 Number     Number              X              Y              Z
 -------------------------------------------------------------------
      1        7          -0.106458447   -0.002708379    0.000035840
      2        6           0.086823335    0.000143025   -0.000030660
      3        6          -0.013107842    0.000341611    0.000012640
      4        6          -0.007087499   -0.031194742   -0.000012866
      5        6           0.035627263    0.038530966    0.000008302
      6        6          -0.048652897    0.020252784    0.000048838
      7        6           0.021448989    0.030526166    0.000006431
      8        6          -0.014880701   -0.021338985    0.000008102
      9        6           0.007978137   -0.033821352   -0.000019464
     10        6          -0.056782940    0.023724117    0.000024208
     11        6           0.088745569    0.032900500   -0.000018761
     12        6           0.008021006   -0.034902900   -0.000021700
     13        7           0.061870054   -0.077913042   -0.000030124
     14        6          -0.045193800    0.043031027    0.000023879
     15        1          -0.002563245   -0.006778225   -0.000009894
     16        1          -0.006638196    0.004012534   -0.000003401
     17        1           0.005802877    0.005253555   -0.000014785
     18        1          -0.011264827   -0.006751367   -0.000010842
     19        1          -0.003686837    0.016692707    0.000004256
 -------------------------------------------------------------------
 Cartesian Forces:  Max     0.106458447 RMS     0.031717184

 GradGradGradGradGradGradGradGradGradGradGradGradGradGradGradGradGradGrad
 Berny optimization.
 FormGI is forming the generalized inverse of G from B-inverse, IUseBI=4.
 Internal  Forces:  Max     0.106492255 RMS     0.021136020
 Search for a local minimum.
 Step number   1 out of a maximum of  102
 All quantities printed in internal units (Hartrees-Bohrs-Radians)
 Mixed Optimization -- RFO/linear search
 Second derivative matrix not updated -- first step.
 ITU=  0
     Eigenvalues ---    0.01601   0.01601   0.01936   0.01939   0.01983
     Eigenvalues ---    0.01993   0.02005   0.02046   0.02050   0.02093
     Eigenvalues ---    0.02104   0.02106   0.02116   0.02125   0.02147
     Eigenvalues ---    0.02176   0.04841   0.04841   0.16000   0.16000
     Eigenvalues ---    0.16000   0.16000   0.16000   0.22380   0.23047
     Eigenvalues ---    0.23519   0.23909   0.24647   0.25000   0.25000
     Eigenvalues ---    0.25000   0.34815   0.34872   0.34910   0.34966
     Eigenvalues ---    0.35125   0.38653   0.40018   0.40768   0.40932
     Eigenvalues ---    0.41384   0.43341   0.44048   0.45246   0.45286
     Eigenvalues ---    0.45346   0.46019   0.46187   0.46948   1.26542
     Eigenvalues ---    1.28226
 RFO step:  Lambda=-6.25081776D-02 EMin= 1.60108672D-02
 Linear search not attempted -- first point.
 Maximum step size (   0.300) exceeded in Quadratic search.
    -- Step size scaled by   0.831
 Iteration  1 RMS(Cart)=  0.04708990 RMS(Int)=  0.00096245
 Iteration  2 RMS(Cart)=  0.00158316 RMS(Int)=  0.00022834
 Iteration  3 RMS(Cart)=  0.00000085 RMS(Int)=  0.00022834
 Variable       Old X    -DE/DX   Delta X   Delta X   Delta X     New X
                                 (Linear)    (Quad)   (Total)
    R1        2.19084   0.10649   0.00000   0.06581   0.06581   2.25664
    R2        2.71528   0.01972   0.00000   0.03542   0.03542   2.75070
    R3        2.65130   0.00670   0.00000   0.01014   0.01007   2.66137
    R4        2.66738   0.01885   0.00000   0.03130   0.03125   2.69863
    R5        2.05976   0.00719   0.00000   0.01455   0.01455   2.07431
    R6        2.63739   0.04606   0.00000   0.07210   0.07207   2.70946
    R7        2.63728  -0.00557   0.00000  -0.00879  -0.00875   2.62853
    R8        2.05821   0.00692   0.00000   0.01397   0.01397   2.07218
    R9        2.64859   0.04432   0.00000   0.07205   0.07212   2.72072
   R10        2.05729   0.00727   0.00000   0.01465   0.01465   2.07195
   R11        2.67642   0.04175   0.00000   0.07056   0.07024   2.74665
   R12        2.64770   0.03785   0.00000   0.06085   0.06098   2.70868
   R13        2.66863   0.01675   0.00000   0.02733   0.02686   2.69549
   R14        2.64990   0.01563   0.00000   0.02524   0.02514   2.67504
   R15        2.05883   0.01092   0.00000   0.02206   0.02206   2.08089
   R16        2.62711   0.05813   0.00000   0.09077   0.09111   2.71821
   R17        2.70307   0.03801   0.00000   0.06694   0.06694   2.77000
   R18        2.62910   0.02418   0.00000   0.03819   0.03865   2.66775
   R19        2.05472   0.01306   0.00000   0.02624   0.02624   2.08096
   R20        2.19572   0.09948   0.00000   0.06225   0.06225   2.25797
    A1        2.10997   0.00218   0.00000   0.00427   0.00405   2.11402
    A2        2.07910  -0.00016   0.00000   0.00135   0.00146   2.08056
    A3        2.09411  -0.00202   0.00000  -0.00562  -0.00551   2.08860
    A4        2.10788  -0.00318   0.00000  -0.00691  -0.00681   2.10107
    A5        2.08447   0.00253   0.00000   0.00825   0.00835   2.09283
    A6        2.09083   0.00065   0.00000  -0.00134  -0.00155   2.08929
    A7        2.09470   0.00124   0.00000   0.00157   0.00148   2.09618
    A8        2.10839  -0.00423   0.00000  -0.01426  -0.01422   2.09417
    A9        2.08010   0.00299   0.00000   0.01269   0.01273   2.09283
   A10        2.10806   0.00537   0.00000   0.01632   0.01633   2.12439
   A11        2.07384   0.00031   0.00000   0.00302   0.00301   2.07685
   A12        2.10128  -0.00568   0.00000  -0.01933  -0.01934   2.08194
   A13        2.09204  -0.01265   0.00000  -0.03114  -0.03098   2.06106
   A14        2.09962   0.01730   0.00000   0.04606   0.04622   2.14584
   A15        2.09153  -0.00465   0.00000  -0.01491  -0.01524   2.07629
   A16        2.07076   0.00321   0.00000   0.01032   0.01067   2.08143
   A17        2.13998  -0.00051   0.00000  -0.00022   0.00032   2.14029
   A18        2.07245  -0.00271   0.00000  -0.01010  -0.01099   2.06147
   A19        2.10407  -0.00460   0.00000  -0.01542  -0.01610   2.08796
   A20        2.09468  -0.00521   0.00000  -0.02036  -0.02002   2.07466
   A21        2.08444   0.00982   0.00000   0.03578   0.03612   2.12056
   A22        2.09348   0.03166   0.00000   0.08435   0.08452   2.17799
   A23        2.12917  -0.02371   0.00000  -0.06315  -0.06323   2.06595
   A24        2.06053  -0.00794   0.00000  -0.02121  -0.02129   2.03924
   A25        2.09993  -0.04355   0.00000  -0.11419  -0.11298   1.98694
   A26        2.10492   0.02385   0.00000   0.07027   0.07079   2.17571
   A27        2.11155  -0.02325   0.00000  -0.07744  -0.07770   2.03385
   A28        2.06672  -0.00060   0.00000   0.00716   0.00690   2.07362
   A29        3.12509   0.00080   0.00000   0.00842   0.00842   3.13351
   A30        3.16630   0.00343   0.00000   0.02569   0.02569   3.19200
   A31        3.14169  -0.00001   0.00000  -0.00006  -0.00006   3.14163
   A32        3.14150   0.00000   0.00000   0.00001   0.00001   3.14151
    D1       -3.14157   0.00000   0.00000  -0.00004  -0.00004   3.14158
    D2       -0.00012   0.00000   0.00000   0.00002   0.00002  -0.00010
    D3       -0.00022   0.00000   0.00000   0.00004   0.00004  -0.00018
    D4        3.14123   0.00001   0.00000   0.00009   0.00009   3.14132
    D5       -0.00009   0.00000   0.00000   0.00002   0.00002  -0.00007
    D6        3.14121   0.00001   0.00000   0.00009   0.00009   3.14130
    D7       -3.14143  -0.00001   0.00000  -0.00006  -0.00006  -3.14149
    D8       -0.00013   0.00000   0.00000   0.00002   0.00002  -0.00012
    D9       -3.14153   0.00000   0.00000   0.00001   0.00001  -3.14152
   D10        0.00027   0.00000   0.00000  -0.00004  -0.00004   0.00023
   D11        0.00020   0.00000   0.00000  -0.00004  -0.00004   0.00016
   D12       -3.14118  -0.00001   0.00000  -0.00010  -0.00010  -3.14128
   D13       -0.00008   0.00000   0.00000   0.00003   0.00003  -0.00005
   D14       -3.14121  -0.00001   0.00000  -0.00009  -0.00009  -3.14131
   D15        3.14131   0.00001   0.00000   0.00008   0.00008   3.14138
   D16        0.00017   0.00000   0.00000  -0.00004  -0.00004   0.00013
   D17       -0.00013   0.00000   0.00000   0.00002   0.00002  -0.00011
   D18       -3.14139  -0.00001   0.00000  -0.00007  -0.00007  -3.14146
   D19        3.14100   0.00002   0.00000   0.00014   0.00014   3.14114
   D20       -0.00026   0.00001   0.00000   0.00005   0.00005  -0.00021
   D21        0.00021   0.00000   0.00000  -0.00004  -0.00004   0.00017
   D22       -3.14110  -0.00001   0.00000  -0.00011  -0.00011  -3.14121
   D23        3.14147   0.00001   0.00000   0.00006   0.00006   3.14153
   D24        0.00016   0.00000   0.00000  -0.00001  -0.00001   0.00015
   D25        3.14114   0.00000   0.00000   0.00004   0.00005   3.14119
   D26       -0.00040   0.00000   0.00000   0.00005   0.00005  -0.00036
   D27       -0.00012  -0.00001   0.00000  -0.00004  -0.00004  -0.00016
   D28        3.14152   0.00000   0.00000  -0.00004  -0.00004   3.14148
   D29       -3.14145   0.00000   0.00000   0.00000   0.00000  -3.14145
   D30       -0.00003   0.00000   0.00000   0.00002   0.00002  -0.00002
   D31       -0.00015   0.00001   0.00000   0.00008   0.00007  -0.00008
   D32        3.14127   0.00001   0.00000   0.00010   0.00009   3.14136
   D33        0.00009  -0.00001   0.00000  -0.00009  -0.00009   0.00001
   D34        3.14154   0.00000   0.00000  -0.00002  -0.00002   3.14151
   D35       -3.14132  -0.00001   0.00000  -0.00010  -0.00010  -3.14143
   D36        0.00012   0.00000   0.00000  -0.00004  -0.00004   0.00008
   D37       -0.00005   0.00000   0.00000   0.00004   0.00004  -0.00001
   D38       -3.14149   0.00000   0.00000  -0.00002  -0.00002  -3.14151
   D39        0.00006   0.00000   0.00000   0.00003   0.00003   0.00009
   D40       -3.14158   0.00000   0.00000   0.00002   0.00002  -3.14156
         Item               Value     Threshold  Converged?
 Maximum Force            0.106492     0.000450     NO 
 RMS     Force            0.021136     0.000300     NO 
 Maximum Displacement     0.243405     0.001800     NO 
 RMS     Displacement     0.046424     0.001200     NO 
 Predicted change in Energy=-3.316848D-02
 GradGradGradGradGradGradGradGradGradGradGradGradGradGradGradGradGradGrad

                          Input orientation:                          
 ---------------------------------------------------------------------
 Center     Atomic      Atomic             Coordinates (Angstroms)
 Number     Number       Type             X           Y           Z
 ---------------------------------------------------------------------
      1          7           0        1.170360   -0.349682    0.024602
      2          6           0        2.363440   -0.298807    0.024239
      3          6           0        4.590121   -1.402315    0.022946
      4          6           0        3.817177   -0.225046    0.023759
      5          6           0        4.468222    1.052402    0.024220
      6          6           0        5.857149    1.127549    0.023673
      7          6           0        6.679152   -0.054468    0.022706
      8          6           0        6.017160   -1.348427    0.022453
      9          6           0        6.831064   -2.519818    0.021977
     10          6           0        8.240895   -2.392487    0.021672
     11          6           0        8.952025   -1.142151    0.021812
     12          6           0        8.111763   -0.007737    0.022283
     13          7           0        9.759963   -4.575889    0.020890
     14          6           0        9.050593   -3.614380    0.021289
     15          1           0        4.083181   -2.375921    0.022857
     16          1           0        3.870877    1.971970    0.025152
     17          1           0        6.336035    2.113865    0.024315
     18          1           0        6.342508   -3.506666    0.022005
     19          1           0        8.571267    0.993008    0.022388
 ---------------------------------------------------------------------
                    Distance matrix (angstroms):
                    1          2          3          4          5
     1  N    0.000000
     2  C    1.194164   0.000000
     3  C    3.578101   2.485125   0.000000
     4  C    2.649750   1.455607   1.408335   0.000000
     5  C    3.583536   2.501174   2.457742   1.433782   0.000000
     6  C    4.914082   3.773658   2.829412   2.447652   1.390959
     7  C    5.516698   4.322624   2.486110   2.867055   2.472524
     8  C    4.948633   3.801497   1.428056   2.470205   2.857130
     9  C    6.062431   4.989245   2.504124   3.788073   4.282964
    10  C    7.359724   6.239230   3.782670   4.926164   5.108848
    11  C    7.821913   6.642341   4.369655   5.216105   4.992049
    12  C    6.949821   5.755688   3.787718   4.300081   3.794640
    13  N    9.572989   8.544121   6.066205   7.365226   7.725296
    14  C    8.529733   7.463984   4.978859   6.235081   6.540412
    15  H    3.548263   2.696649   1.097678   2.167262   3.449878
    16  H    3.561301   2.725582   3.450089   2.197672   1.096552
    17  H    5.723046   4.647848   3.925778   3.437317   2.148355
    18  H    6.059511   5.111100   2.738458   4.140813   4.929305
    19  H    7.521718   6.340813   4.646191   4.907650   4.103475
                    6          7          8          9         10
     6  C    0.000000
     7  C    1.439741   0.000000
     8  C    2.481141   1.453466   0.000000
     9  C    3.775156   2.470027   1.426393   0.000000
    10  C    4.251223   2.811650   2.456636   1.415570   0.000000
    11  C    3.837942   2.519723   2.942105   2.529119   1.438417
    12  C    2.524314   1.433372   2.486928   2.819707   2.388244
    13  N    6.910945   5.471256   4.942175   3.578530   2.659852
    14  C    5.716990   4.277465   3.786326   2.474748   1.465822
    15  H    3.926992   3.482559   2.189982   2.751648   4.157748
    16  H    2.158315   3.463071   3.953678   5.379486   6.176208
    17  H    1.096426   2.195313   3.476945   4.660051   4.892413
    18  H    4.659562   3.468573   2.182624   1.101160   2.201197
    19  H    2.717451   2.162707   3.464935   3.920236   3.401576
                   11         12         13         14         15
    11  C    0.000000
    12  C    1.411714   0.000000
    13  N    3.527509   4.856396   0.000000
    14  C    2.474193   3.726832   1.194866   0.000000
    15  H    5.022731   4.673090   6.088162   5.119470   0.000000
    16  H    5.959515   4.680209   8.806577   7.618187   4.353071
    17  H    4.176727   2.766660   7.515058   6.338897   5.023299
    18  H    3.521435   3.920812   3.580816   2.710227   2.526488
    19  H    2.168843   1.101196   5.694349   4.632253   5.611827
                   16         17         18         19
    16  H    0.000000
    17  H    2.469238   0.000000
    18  H    6.010359   5.620535   0.000000
    19  H    4.801253   2.500518   5.021397   0.000000
 Stoichiometry    C12H5N2(1-)
 Framework group  C1[X(C12H5N2)]
 Deg. of freedom    51
 Full point group                 C1      NOp   1
 Largest Abelian subgroup         C1      NOp   1
 Largest concise Abelian subgroup C1      NOp   1
                         Standard orientation:                         
 ---------------------------------------------------------------------
 Center     Atomic      Atomic             Coordinates (Angstroms)
 Number     Number       Type             X           Y           Z
 ---------------------------------------------------------------------
      1          7           0       -4.746454   -1.546202    0.000047
      2          6           0       -3.703507   -0.964576    0.000042
      3          6           0       -1.218427   -0.949685   -0.000222
      4          6           0       -2.437992   -0.245365   -0.000005
      5          6           0       -2.430489    1.188398    0.000277
      6          6           0       -1.223493    1.879722    0.000143
      7          6           0        0.042031    1.193207   -0.000212
      8          6           0        0.032168   -0.260225   -0.000285
      9          6           0        1.285682   -0.940888   -0.000154
     10          6           0        2.487899   -0.193552   -0.000056
     11          6           0        2.561262    1.242993   -0.000068
     12          6           0        1.300820    1.878778   -0.000200
     13          7           0        4.826159   -1.461366    0.000293
     14          6           0        3.760351   -0.921219    0.000182
     15          1           0       -1.233746   -2.047257   -0.000179
     16          1           0       -3.377373    1.741423    0.000747
     17          1           0       -1.238949    2.976039    0.000639
     18          1           0        1.292737   -2.042026    0.000017
     19          1           0        1.261567    2.979274   -0.000251
 ---------------------------------------------------------------------
 Rotational constants (GHZ):      1.8394682      0.3702671      0.3082245
 Standard basis: STO-3G (5D, 7F)
 There are    75 symmetry adapted cartesian basis functions of A   symmetry.
 There are    75 symmetry adapted basis functions of A   symmetry.
    75 basis functions,   225 primitive gaussians,    75 cartesian basis functions
    46 alpha electrons       46 beta electrons
       nuclear repulsion energy       684.1583740959 Hartrees.
 NAtoms=   19 NActive=   19 NUniq=   19 SFac= 1.00D+00 NAtFMM=   60 NAOKFM=F Big=F
 Integral buffers will be    131072 words long.
 Raffenetti 2 integral format.
 Two-electron integral symmetry is turned on.
 One-electron integrals computed using PRISM.
 NBasis=    75 RedAO= T EigKep=  1.73D-01  NBF=    75
 NBsUse=    75 1.00D-06 EigRej= -1.00D+00 NBFU=    75
 Initial guess from the checkpoint file:  "/tmp/bnp.472653.sequoia/Gau-26458.chk"
 B after Tr=     0.000000    0.000000    0.000000
         Rot=    0.999998   -0.000002    0.000000    0.001885 Ang=  -0.22 deg.
 ExpMin= 1.69D-01 ExpMax= 9.91D+01 ExpMxC= 9.91D+01 IAcc=1 IRadAn=         1 AccDes= 0.00D+00
 Harris functional with IExCor=  402 and IRadAn=       1 diagonalized for initial guess.
 HarFok:  IExCor=  402 AccDes= 0.00D+00 IRadAn=         1 IDoV= 1 UseB2=F ITyADJ=14
 ICtDFT=  3500011 ScaDFX=  1.000000  1.000000  1.000000  1.000000
 FoFCou: FMM=F IPFlag=           0 FMFlag=      100000 FMFlg1=           0
         NFxFlg=           0 DoJE=T BraDBF=F KetDBF=T FulRan=T
         wScrn=  0.000000 ICntrl=     500 IOpCl=  0 I1Cent=   200000004 NGrid=           0
         NMat0=    1 NMatS0=      1 NMatT0=    0 NMatD0=    1 NMtDS0=    0 NMtDT0=    0
 Petite list used in FoFCou.
 Keep R1 ints in memory in canonical form, NReq=4993994.
 Requested convergence on RMS density matrix=1.00D-08 within 128 cycles.
 Requested convergence on MAX density matrix=1.00D-06.
 Requested convergence on             energy=1.00D-06.
 No special actions if energy rises.
 Integral accuracy reduced to 1.0D-05 until final iterations.
 Initial convergence to 1.0D-05 achieved.  Increase integral accuracy.
 SCF Done:  E(RB3LYP) =  -562.513381204     A.U. after   15 cycles
            NFock= 15  Conv=0.63D-08     -V/T= 2.0139
 Calling FoFJK, ICntrl=      2127 FMM=F ISym2X=0 I1Cent= 0 IOpClX= 0 NMat=1 NMatS=1 NMatT=0.
 ***** Axes restored to original set *****
 -------------------------------------------------------------------
 Center     Atomic                   Forces (Hartrees/Bohr)
 Number     Number              X              Y              Z
 -------------------------------------------------------------------
      1        7          -0.013867189   -0.000731037    0.000004817
      2        6           0.011071081    0.000510346   -0.000002547
      3        6          -0.004189996    0.004331500    0.000009179
      4        6          -0.001838203   -0.010707681   -0.000004754
      5        6           0.015438302    0.010299379   -0.000000013
      6        6          -0.017606514    0.000914083    0.000021410
      7        6           0.010927062    0.010022508    0.000006940
      8        6          -0.004739582   -0.001526087    0.000010974
      9        6           0.009877847   -0.012424910   -0.000009595
     10        6          -0.032567637    0.007121713    0.000017134
     11        6           0.039294015    0.011955002   -0.000014752
     12        6          -0.011740649   -0.012881189   -0.000003464
     13        7           0.006325291   -0.009716461   -0.000002589
     14        6          -0.002028017   -0.000775496    0.000000611
     15        1           0.000091750   -0.001501561   -0.000007140
     16        1          -0.002547998   -0.000439308   -0.000006018
     17        1           0.002565993    0.000818258   -0.000013360
     18        1          -0.001656631    0.000419328   -0.000009677
     19        1          -0.002808926    0.004311613    0.000002843
 -------------------------------------------------------------------
 Cartesian Forces:  Max     0.039294015 RMS     0.009279924

 GradGradGradGradGradGradGradGradGradGradGradGradGradGradGradGradGradGrad
 Berny optimization.
 Using GEDIIS/GDIIS optimizer.
 FormGI is forming the generalized inverse of G from B-inverse, IUseBI=4.
 Internal  Forces:  Max     0.022474086 RMS     0.005125982
 Search for a local minimum.
 Step number   2 out of a maximum of  102
 All quantities printed in internal units (Hartrees-Bohrs-Radians)
 Mixed Optimization -- RFO/linear search
 Update second derivatives using D2CorX and points    1    2
 DE= -3.21D-02 DEPred=-3.32D-02 R= 9.67D-01
 TightC=F SS=  1.41D+00  RLast= 3.00D-01 DXNew= 5.0454D-01 8.9993D-01
 Trust test= 9.67D-01 RLast= 3.00D-01 DXMaxT set to 5.05D-01
 ITU=  1  0
 Use linear search instead of GDIIS.
     Eigenvalues ---    0.01601   0.01601   0.01936   0.01939   0.01985
     Eigenvalues ---    0.01994   0.02008   0.02048   0.02053   0.02094
     Eigenvalues ---    0.02106   0.02107   0.02119   0.02126   0.02147
     Eigenvalues ---    0.02170   0.04841   0.04860   0.15895   0.16000
     Eigenvalues ---    0.16000   0.16000   0.16077   0.21938   0.22404
     Eigenvalues ---    0.23315   0.23594   0.24401   0.24876   0.25000
     Eigenvalues ---    0.25018   0.34818   0.34896   0.34940   0.34987
     Eigenvalues ---    0.35170   0.39039   0.40143   0.40524   0.40857
     Eigenvalues ---    0.41478   0.43231   0.43871   0.44250   0.45274
     Eigenvalues ---    0.45326   0.46152   0.46809   0.50079   1.27301
     Eigenvalues ---    1.34840
 RFO step:  Lambda=-4.13957892D-03 EMin= 1.60108672D-02
 Quartic linear search produced a step of  0.38938.
 Iteration  1 RMS(Cart)=  0.03493113 RMS(Int)=  0.00106901
 Iteration  2 RMS(Cart)=  0.00167573 RMS(Int)=  0.00029632
 Iteration  3 RMS(Cart)=  0.00000032 RMS(Int)=  0.00029632
 Variable       Old X    -DE/DX   Delta X   Delta X   Delta X     New X
                                 (Linear)    (Quad)   (Total)
    R1        2.25664   0.01389   0.02562  -0.01238   0.01324   2.26988
    R2        2.75070   0.00280   0.01379  -0.00560   0.00819   2.75889
    R3        2.66137  -0.00299   0.00392  -0.01333  -0.00943   2.65194
    R4        2.69863   0.00269   0.01217  -0.00489   0.00722   2.70585
    R5        2.07431   0.00129   0.00566  -0.00122   0.00445   2.07876
    R6        2.70946   0.01011   0.02806  -0.00074   0.02736   2.73681
    R7        2.62853  -0.00693  -0.00341  -0.01687  -0.02022   2.60831
    R8        2.07218   0.00102   0.00544  -0.00204   0.00340   2.07558
    R9        2.72072   0.00740   0.02808  -0.00846   0.01964   2.74036
   R10        2.07195   0.00186   0.00570   0.00095   0.00665   2.07860
   R11        2.74665   0.00556   0.02735  -0.01393   0.01289   2.75955
   R12        2.70868   0.00165   0.02375  -0.02180   0.00207   2.71075
   R13        2.69549   0.00360   0.01046  -0.00089   0.00899   2.70448
   R14        2.67504  -0.00461   0.00979  -0.02397  -0.01425   2.66079
   R15        2.08089   0.00036   0.00859  -0.00813   0.00046   2.08135
   R16        2.71821   0.02247   0.03547   0.02796   0.06388   2.78209
   R17        2.77000   0.01112   0.02606   0.00859   0.03465   2.80465
   R18        2.66775   0.01059   0.01505   0.01507   0.03068   2.69843
   R19        2.08096   0.00275   0.01022  -0.00063   0.00959   2.09054
   R20        2.25797   0.01157   0.02424  -0.01324   0.01100   2.26897
    A1        2.11402   0.00050   0.00158   0.00021   0.00155   2.11558
    A2        2.08056   0.00055   0.00057   0.00507   0.00576   2.08632
    A3        2.08860  -0.00105  -0.00214  -0.00529  -0.00731   2.08129
    A4        2.10107   0.00010  -0.00265   0.00403   0.00145   2.10252
    A5        2.09283   0.00061   0.00325   0.00012   0.00344   2.09626
    A6        2.08929  -0.00071  -0.00060  -0.00415  -0.00488   2.08440
    A7        2.09618   0.00041   0.00058   0.00049   0.00102   2.09720
    A8        2.09417  -0.00267  -0.00554  -0.01484  -0.02036   2.07381
    A9        2.09283   0.00225   0.00496   0.01435   0.01934   2.11217
   A10        2.12439   0.00226   0.00636   0.00503   0.01132   2.13572
   A11        2.07685   0.00089   0.00117   0.00945   0.01066   2.08751
   A12        2.08194  -0.00315  -0.00753  -0.01448  -0.02198   2.05996
   A13        2.06106  -0.00376  -0.01206  -0.00551  -0.01747   2.04358
   A14        2.14584   0.00393   0.01800   0.00465   0.02300   2.16884
   A15        2.07629  -0.00017  -0.00593   0.00086  -0.00553   2.07076
   A16        2.08143   0.00131   0.00415   0.00392   0.00846   2.08989
   A17        2.14029   0.00052   0.00012   0.00600   0.00690   2.14719
   A18        2.06147  -0.00183  -0.00428  -0.00993  -0.01536   2.04610
   A19        2.08796  -0.00125  -0.00627  -0.00192  -0.00904   2.07892
   A20        2.07466  -0.00111  -0.00780  -0.00085  -0.00821   2.06645
   A21        2.12056   0.00237   0.01407   0.00277   0.01726   2.13782
   A22        2.17799   0.01282   0.03291   0.03512   0.06828   2.24628
   A23        2.06595  -0.01025  -0.02462  -0.02928  -0.05403   2.01192
   A24        2.03924  -0.00257  -0.00829  -0.00584  -0.01425   2.02499
   A25        1.98694  -0.02111  -0.04399  -0.06189  -0.10425   1.88269
   A26        2.17571   0.01154   0.02757   0.03776   0.06590   2.24162
   A27        2.03385  -0.01030  -0.03025  -0.03770  -0.06825   1.96561
   A28        2.07362  -0.00124   0.00269  -0.00006   0.00234   2.07596
   A29        3.13351   0.00031   0.00328   0.01432   0.01759   3.15111
   A30        3.19200  -0.00154   0.01000  -0.05520  -0.04520   3.14680
   A31        3.14163   0.00000  -0.00002  -0.00004  -0.00006   3.14157
   A32        3.14151   0.00000   0.00000   0.00005   0.00006   3.14156
    D1        3.14158   0.00000  -0.00001  -0.00007  -0.00009   3.14150
    D2       -0.00010   0.00000   0.00001   0.00007   0.00008  -0.00001
    D3       -0.00018   0.00000   0.00001   0.00015   0.00017  -0.00002
    D4        3.14132   0.00001   0.00004   0.00030   0.00034  -3.14153
    D5       -0.00007   0.00000   0.00001   0.00006   0.00006  -0.00001
    D6        3.14130   0.00001   0.00004   0.00029   0.00033  -3.14156
    D7       -3.14149   0.00000  -0.00002  -0.00017  -0.00019   3.14150
    D8       -0.00012   0.00000   0.00001   0.00007   0.00007  -0.00004
    D9       -3.14152   0.00000   0.00001   0.00001   0.00001  -3.14151
   D10        0.00023   0.00000  -0.00002  -0.00016  -0.00017   0.00006
   D11        0.00016   0.00000  -0.00002  -0.00014  -0.00016   0.00000
   D12       -3.14128  -0.00001  -0.00004  -0.00031  -0.00034   3.14156
   D13       -0.00005   0.00000   0.00001   0.00007   0.00008   0.00003
   D14       -3.14131  -0.00001  -0.00004  -0.00032  -0.00036   3.14152
   D15        3.14138   0.00001   0.00003   0.00024   0.00027  -3.14153
   D16        0.00013   0.00000  -0.00002  -0.00015  -0.00017  -0.00004
   D17       -0.00011   0.00000   0.00001   0.00006   0.00006  -0.00005
   D18       -3.14146   0.00000  -0.00003  -0.00023  -0.00025   3.14147
   D19        3.14114   0.00001   0.00006   0.00045   0.00050  -3.14154
   D20       -0.00021   0.00000   0.00002   0.00017   0.00019  -0.00002
   D21        0.00017   0.00000  -0.00001  -0.00012  -0.00013   0.00004
   D22       -3.14121  -0.00001  -0.00004  -0.00035  -0.00039   3.14159
   D23        3.14153   0.00000   0.00002   0.00015   0.00017  -3.14149
   D24        0.00015   0.00000  -0.00001  -0.00008  -0.00009   0.00006
   D25        3.14119   0.00000   0.00002   0.00025   0.00027   3.14146
   D26       -0.00036   0.00000   0.00002   0.00022   0.00024  -0.00011
   D27       -0.00016   0.00000  -0.00002  -0.00003  -0.00005  -0.00021
   D28        3.14148   0.00000  -0.00002  -0.00006  -0.00008   3.14141
   D29       -3.14145   0.00000   0.00000  -0.00004  -0.00004  -3.14150
   D30       -0.00002   0.00000   0.00001   0.00006   0.00007   0.00005
   D31       -0.00008   0.00000   0.00003   0.00019   0.00022   0.00014
   D32        3.14136   0.00001   0.00004   0.00030   0.00033  -3.14150
   D33        0.00001   0.00000  -0.00003  -0.00022  -0.00026  -0.00026
   D34        3.14151   0.00000  -0.00001  -0.00006  -0.00007   3.14144
   D35       -3.14143  -0.00001  -0.00004  -0.00033  -0.00038   3.14138
   D36        0.00008   0.00000  -0.00002  -0.00017  -0.00019  -0.00011
   D37       -0.00001   0.00000   0.00002   0.00012   0.00013   0.00012
   D38       -3.14151   0.00000  -0.00001  -0.00004  -0.00006  -3.14157
   D39        0.00009   0.00000   0.00001   0.00001   0.00003   0.00011
   D40       -3.14156   0.00000   0.00001   0.00004   0.00006  -3.14150
         Item               Value     Threshold  Converged?
 Maximum Force            0.022474     0.000450     NO 
 RMS     Force            0.005126     0.000300     NO 
 Maximum Displacement     0.188939     0.001800     NO 
 RMS     Displacement     0.034699     0.001200     NO 
 Predicted change in Energy=-4.054737D-03
 GradGradGradGradGradGradGradGradGradGradGradGradGradGradGradGradGradGrad

                          Input orientation:                          
 ---------------------------------------------------------------------
 Center     Atomic      Atomic             Coordinates (Angstroms)
 Number     Number       Type             X           Y           Z
 ---------------------------------------------------------------------
      1          7           0        1.159392   -0.386577    0.024515
      2          6           0        2.358140   -0.310320    0.024231
      3          6           0        4.591739   -1.400917    0.023213
      4          6           0        3.815951   -0.231503    0.023907
      5          6           0        4.473722    1.058766    0.024196
      6          6           0        5.851898    1.134579    0.023786
      7          6           0        6.694329   -0.045761    0.023024
      8          6           0        6.022415   -1.342285    0.022767
      9          6           0        6.850879   -2.509263    0.022011
     10          6           0        8.250516   -2.355767    0.021732
     11          6           0        9.040316   -1.113331    0.021824
     12          6           0        8.128456   -0.014445    0.022434
     13          7           0        9.659981   -4.640884    0.020650
     14          6           0        9.026716   -3.620772    0.021150
     15          1           0        4.094011   -2.381903    0.022929
     16          1           0        3.856880    1.967546    0.024713
     17          1           0        6.341948    2.119329    0.023942
     18          1           0        6.364093   -3.497255    0.021712
     19          1           0        8.531568    1.015764    0.022504
 ---------------------------------------------------------------------
                    Distance matrix (angstroms):
                    1          2          3          4          5
     1  N    0.000000
     2  C    1.201171   0.000000
     3  C    3.579092   2.485633   0.000000
     4  C    2.661081   1.459940   1.403345   0.000000
     5  C    3.615771   2.519937   2.462512   1.448260   0.000000
     6  C    4.932902   3.780751   2.831384   2.451787   1.380260
     7  C    5.545421   4.344253   2.501466   2.884365   2.480137
     8  C    4.956044   3.806818   1.431876   2.470288   2.857183
     9  C    6.074441   5.002006   2.516375   3.794599   4.287390
    10  C    7.359467   6.237304   3.781321   4.917100   5.091484
    11  C    7.914363   6.730253   4.457863   5.298265   5.056856
    12  C    6.978993   5.777898   3.798772   4.317965   3.809051
    13  N    9.505744   8.489445   6.015353   7.320884   7.706056
    14  C    8.506164   7.445066   4.959514   6.216046   6.529000
    15  H    3.548707   2.702722   1.100030   2.168303   3.461557
    16  H    3.580270   2.726701   3.447689   2.199430   1.098352
    17  H    5.756600   4.666254   3.931330   3.450662   2.148270
    18  H    6.063435   5.119006   2.745155   4.142242   4.932630
    19  H    7.504369   6.314248   4.621969   4.877779   4.058075
                    6          7          8          9         10
     6  C    0.000000
     7  C    1.450136   0.000000
     8  C    2.482727   1.460289   0.000000
     9  C    3.778300   2.468472   1.431150   0.000000
    10  C    4.235078   2.785291   2.447771   1.408029   0.000000
    11  C    3.901168   2.577472   3.026574   2.596586   1.472220
    12  C    2.550094   1.434469   2.489693   2.802913   2.344501
    13  N    6.917910   5.469026   4.910463   3.526310   2.684838
    14  C    5.717766   4.268575   3.770588   2.443301   1.484158
    15  H    3.931388   3.495599   2.190786   2.759808   4.156587
    16  H    2.161928   3.479156   3.955316   5.385709   6.164015
    17  H    1.099946   2.193579   3.476331   4.656488   4.865091
    18  H    4.660069   3.467257   2.181889   1.101404   2.204901
    19  H    2.682304   2.121858   3.443290   3.905193   3.383224
                   11         12         13         14         15
    11  C    0.000000
    12  C    1.427949   0.000000
    13  N    3.581566   4.873346   0.000000
    14  C    2.507478   3.716512   1.200688   0.000000
    15  H    5.106389   4.677777   6.006915   5.085900   0.000000
    16  H    6.029910   4.708998   8.794734   7.612918   4.355908
    17  H    4.210853   2.782913   7.530593   6.336935   5.031332
    18  H    3.584029   3.904221   3.488663   2.665487   2.529285
    19  H    2.189033   1.106269   5.768100   4.662900   5.588922
                   16         17         18         19
    16  H    0.000000
    17  H    2.489699   0.000000
    18  H    6.012502   5.616628   0.000000
    19  H    4.770598   2.451998   5.006525   0.000000
 Stoichiometry    C12H5N2(1-)
 Framework group  C1[X(C12H5N2)]
 Deg. of freedom    51
 Full point group                 C1      NOp   1
 Largest Abelian subgroup         C1      NOp   1
 Largest concise Abelian subgroup C1      NOp   1
                         Standard orientation:                         
 ---------------------------------------------------------------------
 Center     Atomic      Atomic             Coordinates (Angstroms)
 Number     Number       Type             X           Y           Z
 ---------------------------------------------------------------------
      1          7           0       -4.742039   -1.577000   -0.000083
      2          6           0       -3.704849   -0.971156   -0.000024
      3          6           0       -1.219364   -0.944025    0.000016
      4          6           0       -2.437266   -0.246822    0.000074
      5          6           0       -2.428115    1.201409    0.000127
      6          6           0       -1.230360    1.887338    0.000116
      7          6           0        0.052006    1.210261    0.000016
      8          6           0        0.033020   -0.249905   -0.000008
      9          6           0        1.296909   -0.921303   -0.000112
     10          6           0        2.479001   -0.156318   -0.000013
     11          6           0        2.627609    1.308382   -0.000100
     12          6           0        1.319727    1.881517   -0.000144
     13          7           0        4.763699   -1.566463    0.000116
     14          6           0        3.740147   -0.938773    0.000075
     15          1           0       -1.224201   -2.044045   -0.000088
     16          1           0       -3.387052    1.736962    0.000146
     17          1           0       -1.234074    2.987277    0.000088
     18          1           0        1.304994   -2.022677   -0.000226
     19          1           0        1.217921    2.983091   -0.000299
 ---------------------------------------------------------------------
 Rotational constants (GHZ):      1.7818503      0.3719335      0.3077049
 Standard basis: STO-3G (5D, 7F)
 There are    75 symmetry adapted cartesian basis functions of A   symmetry.
 There are    75 symmetry adapted basis functions of A   symmetry.
    75 basis functions,   225 primitive gaussians,    75 cartesian basis functions
    46 alpha electrons       46 beta electrons
       nuclear repulsion energy       682.0697750948 Hartrees.
 NAtoms=   19 NActive=   19 NUniq=   19 SFac= 1.00D+00 NAtFMM=   60 NAOKFM=F Big=F
 Integral buffers will be    131072 words long.
 Raffenetti 2 integral format.
 Two-electron integral symmetry is turned on.
 One-electron integrals computed using PRISM.
 NBasis=    75 RedAO= T EigKep=  1.76D-01  NBF=    75
 NBsUse=    75 1.00D-06 EigRej= -1.00D+00 NBFU=    75
 Initial guess from the checkpoint file:  "/tmp/bnp.472653.sequoia/Gau-26458.chk"
 B after Tr=     0.000000    0.000000    0.000000
         Rot=    0.999999   -0.000001    0.000000    0.001469 Ang=  -0.17 deg.
 ExpMin= 1.69D-01 ExpMax= 9.91D+01 ExpMxC= 9.91D+01 IAcc=1 IRadAn=         1 AccDes= 0.00D+00
 Harris functional with IExCor=  402 and IRadAn=       1 diagonalized for initial guess.
 HarFok:  IExCor=  402 AccDes= 0.00D+00 IRadAn=         1 IDoV= 1 UseB2=F ITyADJ=14
 ICtDFT=  3500011 ScaDFX=  1.000000  1.000000  1.000000  1.000000
 FoFCou: FMM=F IPFlag=           0 FMFlag=      100000 FMFlg1=           0
         NFxFlg=           0 DoJE=T BraDBF=F KetDBF=T FulRan=T
         wScrn=  0.000000 ICntrl=     500 IOpCl=  0 I1Cent=   200000004 NGrid=           0
         NMat0=    1 NMatS0=      1 NMatT0=    0 NMatD0=    1 NMtDS0=    0 NMtDT0=    0
 Petite list used in FoFCou.
 Keep R1 ints in memory in canonical form, NReq=4993994.
 Requested convergence on RMS density matrix=1.00D-08 within 128 cycles.
 Requested convergence on MAX density matrix=1.00D-06.
 Requested convergence on             energy=1.00D-06.
 No special actions if energy rises.
 Integral accuracy reduced to 1.0D-05 until final iterations.
 Initial convergence to 1.0D-05 achieved.  Increase integral accuracy.
 SCF Done:  E(RB3LYP) =  -562.517781343     A.U. after   15 cycles
            NFock= 15  Conv=0.77D-08     -V/T= 2.0140
 Calling FoFJK, ICntrl=      2127 FMM=F ISym2X=0 I1Cent= 0 IOpClX= 0 NMat=1 NMatS=1 NMatT=0.
 ***** Axes restored to original set *****
 -------------------------------------------------------------------
 Center     Atomic                   Forces (Hartrees/Bohr)
 Number     Number              X              Y              Z
 -------------------------------------------------------------------
      1        7           0.002309575    0.000669910   -0.000001497
      2        6          -0.001114190   -0.000724310    0.000004931
      3        6           0.000486306   -0.000421021   -0.000005767
      4        6          -0.001398170   -0.000147088   -0.000002443
      5        6          -0.000580511    0.000372104    0.000000279
      6        6           0.001955610    0.001339603   -0.000005032
      7        6           0.000859118   -0.003881302    0.000001450
      8        6          -0.001821289    0.001963986   -0.000000424
      9        6           0.001251060   -0.000095484    0.000001915
     10        6          -0.003547173   -0.007532113   -0.000003628
     11        6           0.003803058    0.004532226   -0.000003892
     12        6          -0.004994118    0.006575641    0.000007548
     13        7          -0.001023378    0.002736501    0.000001192
     14        6           0.000609028   -0.004488631    0.000000765
     15        1           0.000371066    0.000255916    0.000002516
     16        1           0.000156529   -0.000428910   -0.000000143
     17        1          -0.000114755   -0.000419934    0.000003107
     18        1           0.001260087    0.000195925   -0.000000068
     19        1           0.001532145   -0.000503020   -0.000000809
 -------------------------------------------------------------------
 Cartesian Forces:  Max     0.007532113 RMS     0.002081527

 GradGradGradGradGradGradGradGradGradGradGradGradGradGradGradGradGradGrad
 Berny optimization.
 Using GEDIIS/GDIIS optimizer.
 FormGI is forming the generalized inverse of G from B-inverse, IUseBI=4.
 Internal  Forces:  Max     0.007542814 RMS     0.001215543
 Search for a local minimum.
 Step number   3 out of a maximum of  102
 All quantities printed in internal units (Hartrees-Bohrs-Radians)
 Mixed Optimization -- RFO/linear search
 Update second derivatives using D2CorX and points    1    2    3
 DE= -4.40D-03 DEPred=-4.05D-03 R= 1.09D+00
 TightC=F SS=  1.41D+00  RLast= 2.05D-01 DXNew= 8.4853D-01 6.1638D-01
 Trust test= 1.09D+00 RLast= 2.05D-01 DXMaxT set to 6.16D-01
 ITU=  1  1  0
 Use linear search instead of GDIIS.
     Eigenvalues ---    0.01601   0.01606   0.01936   0.01939   0.01986
     Eigenvalues ---    0.01995   0.02009   0.02049   0.02057   0.02094
     Eigenvalues ---    0.02107   0.02109   0.02122   0.02126   0.02147
     Eigenvalues ---    0.02164   0.04841   0.04933   0.15798   0.16000
     Eigenvalues ---    0.16000   0.16006   0.16293   0.21392   0.22459
     Eigenvalues ---    0.23258   0.23557   0.24309   0.24921   0.25015
     Eigenvalues ---    0.25310   0.34808   0.34883   0.34930   0.35009
     Eigenvalues ---    0.35095   0.37787   0.39354   0.40242   0.40837
     Eigenvalues ---    0.41513   0.42138   0.43485   0.44082   0.45277
     Eigenvalues ---    0.45326   0.46387   0.46776   0.50127   1.27318
     Eigenvalues ---    1.37333
 RFO step:  Lambda=-4.39035062D-04 EMin= 1.60108671D-02
 Quartic linear search produced a step of -0.02422.
 Iteration  1 RMS(Cart)=  0.01655378 RMS(Int)=  0.00056591
 Iteration  2 RMS(Cart)=  0.00055646 RMS(Int)=  0.00000606
 Iteration  3 RMS(Cart)=  0.00000015 RMS(Int)=  0.00000606
 Variable       Old X    -DE/DX   Delta X   Delta X   Delta X     New X
                                 (Linear)    (Quad)   (Total)
    R1        2.26988  -0.00235  -0.00032  -0.00032  -0.00064   2.26925
    R2        2.75889  -0.00119  -0.00020  -0.00202  -0.00222   2.75667
    R3        2.65194   0.00020   0.00023   0.00011   0.00034   2.65227
    R4        2.70585  -0.00070  -0.00017  -0.00093  -0.00110   2.70475
    R5        2.07876  -0.00040  -0.00011  -0.00069  -0.00080   2.07796
    R6        2.73681   0.00032  -0.00066   0.00316   0.00249   2.73931
    R7        2.60831   0.00049   0.00049   0.00001   0.00050   2.60881
    R8        2.07558  -0.00044  -0.00008  -0.00087  -0.00096   2.07463
    R9        2.74036  -0.00037  -0.00048   0.00111   0.00064   2.74100
   R10        2.07860  -0.00043  -0.00016  -0.00065  -0.00081   2.07778
   R11        2.75955  -0.00007  -0.00031   0.00072   0.00041   2.75996
   R12        2.71075  -0.00194  -0.00005  -0.00342  -0.00347   2.70728
   R13        2.70448   0.00194  -0.00022   0.00481   0.00461   2.70909
   R14        2.66079  -0.00181   0.00035  -0.00410  -0.00376   2.65703
   R15        2.08135  -0.00073  -0.00001  -0.00173  -0.00174   2.07961
   R16        2.78209   0.00754  -0.00155   0.02038   0.01883   2.80092
   R17        2.80465   0.00128  -0.00084   0.00567   0.00483   2.80949
   R18        2.69843   0.00317  -0.00074   0.00886   0.00810   2.70653
   R19        2.09054   0.00009  -0.00023   0.00108   0.00085   2.09139
   R20        2.26897  -0.00286  -0.00027  -0.00089  -0.00116   2.26781
    A1        2.11558  -0.00004  -0.00004  -0.00047  -0.00050   2.11507
    A2        2.08632   0.00024  -0.00014   0.00197   0.00183   2.08815
    A3        2.08129  -0.00020   0.00018  -0.00150  -0.00133   2.07996
    A4        2.10252   0.00043  -0.00004   0.00156   0.00153   2.10405
    A5        2.09626  -0.00045  -0.00008  -0.00155  -0.00163   2.09463
    A6        2.08440   0.00002   0.00012  -0.00001   0.00011   2.08451
    A7        2.09720   0.00004  -0.00002   0.00068   0.00066   2.09786
    A8        2.07381  -0.00013   0.00049  -0.00226  -0.00176   2.07205
    A9        2.11217   0.00009  -0.00047   0.00157   0.00110   2.11327
   A10        2.13572  -0.00060  -0.00027  -0.00185  -0.00212   2.13360
   A11        2.08751   0.00039  -0.00026   0.00248   0.00222   2.08973
   A12        2.05996   0.00021   0.00053  -0.00063  -0.00010   2.05986
   A13        2.04358   0.00062   0.00042   0.00118   0.00160   2.04518
   A14        2.16884  -0.00248  -0.00056  -0.00682  -0.00739   2.16145
   A15        2.07076   0.00186   0.00013   0.00565   0.00579   2.07655
   A16        2.08989  -0.00005  -0.00020   0.00047   0.00025   2.09014
   A17        2.14719  -0.00036  -0.00017   0.00023   0.00004   2.14724
   A18        2.04610   0.00040   0.00037  -0.00069  -0.00030   2.04580
   A19        2.07892   0.00072   0.00022   0.00197   0.00221   2.08113
   A20        2.06645   0.00072   0.00020   0.00451   0.00470   2.07115
   A21        2.13782  -0.00145  -0.00042  -0.00649  -0.00691   2.13091
   A22        2.24628  -0.00226  -0.00165  -0.00310  -0.00475   2.24152
   A23        2.01192  -0.00001   0.00131  -0.00420  -0.00289   2.00903
   A24        2.02499   0.00227   0.00035   0.00729   0.00764   2.03263
   A25        1.88269   0.00104   0.00253  -0.00062   0.00187   1.88457
   A26        2.24162  -0.00177  -0.00160  -0.00322  -0.00482   2.23679
   A27        1.96561   0.00257   0.00165   0.00937   0.01102   1.97663
   A28        2.07596  -0.00080  -0.00006  -0.00615  -0.00620   2.06976
   A29        3.15111  -0.00119  -0.00043  -0.06911  -0.06954   3.08157
   A30        3.14680   0.00129   0.00109   0.02392   0.02502   3.17181
   A31        3.14157   0.00000   0.00000   0.00012   0.00012   3.14169
   A32        3.14156   0.00000   0.00000   0.00000   0.00000   3.14156
    D1        3.14150   0.00000   0.00000   0.00012   0.00012  -3.14157
    D2       -0.00001   0.00000   0.00000   0.00004   0.00004   0.00003
    D3       -0.00002   0.00000   0.00000   0.00002   0.00001  -0.00001
    D4       -3.14153   0.00000  -0.00001  -0.00006  -0.00007   3.14159
    D5       -0.00001   0.00000   0.00000  -0.00001  -0.00002  -0.00002
    D6       -3.14156   0.00000  -0.00001  -0.00007  -0.00007   3.14156
    D7        3.14150   0.00000   0.00000   0.00009   0.00010  -3.14159
    D8       -0.00004   0.00000   0.00000   0.00004   0.00004  -0.00001
    D9       -3.14151   0.00000   0.00000  -0.00011  -0.00011   3.14157
   D10        0.00006   0.00000   0.00000  -0.00007  -0.00007  -0.00001
   D11        0.00000   0.00000   0.00000  -0.00003  -0.00003  -0.00002
   D12        3.14156   0.00000   0.00001   0.00001   0.00002   3.14158
   D13        0.00003   0.00000   0.00000  -0.00001  -0.00001   0.00002
   D14        3.14152   0.00000   0.00001   0.00006   0.00007  -3.14159
   D15       -3.14153   0.00000  -0.00001  -0.00005  -0.00006  -3.14159
   D16       -0.00004   0.00000   0.00000   0.00002   0.00003  -0.00001
   D17       -0.00005   0.00000   0.00000   0.00004   0.00004  -0.00002
   D18        3.14147   0.00000   0.00001   0.00001   0.00002   3.14149
   D19       -3.14154   0.00000  -0.00001  -0.00004  -0.00005   3.14159
[...]
 ! D15   D(16,5,6,7)          -179.9979         -DE/DX =    0.0                 !
 ! D16   D(16,5,6,17)            0.0004         -DE/DX =    0.0                 !
 ! D17   D(5,6,7,8)             -0.002          -DE/DX =    0.0                 !
 ! D18   D(5,6,7,12)           179.9912         -DE/DX =    0.0                 !
 ! D19   D(17,6,7,8)           179.9996         -DE/DX =    0.0                 !
 ! D20   D(17,6,7,12)           -0.0072         -DE/DX =    0.0                 !
 ! D21   D(6,7,8,3)              0.0014         -DE/DX =    0.0                 !
 ! D22   D(6,7,8,9)           -179.9979         -DE/DX =    0.0                 !
 ! D23   D(12,7,8,3)          -179.9921         -DE/DX =    0.0                 !
 ! D24   D(12,7,8,9)             0.0086         -DE/DX =    0.0                 !
 ! D25   D(6,7,12,11)          179.9953         -DE/DX =    0.0                 !
 ! D26   D(6,7,12,19)           -0.007          -DE/DX =    0.0                 !
 ! D27   D(8,7,12,11)           -0.0116         -DE/DX =    0.0                 !
 ! D28   D(8,7,12,19)          179.9861         -DE/DX =    0.0                 !
 ! D29   D(3,8,9,10)          -179.9945         -DE/DX =    0.0                 !
 ! D30   D(3,8,9,18)             0.0032         -DE/DX =    0.0                 !
 ! D31   D(7,8,9,10)             0.0048         -DE/DX =    0.0                 !
 ! D32   D(7,8,9,18)          -179.9976         -DE/DX =    0.0                 !
 ! D33   D(8,9,10,11)           -0.0184         -DE/DX =    0.0                 !
 ! D34   D(8,9,10,14)          179.9863         -DE/DX =    0.0                 !
 ! D35   D(18,9,10,11)         179.984          -DE/DX =    0.0                 !
 ! D36   D(18,9,10,14)          -0.0112         -DE/DX =    0.0                 !
 ! D37   D(9,10,11,12)           0.0152         -DE/DX =    0.0                 !
 ! D38   D(14,10,11,12)       -179.9896         -DE/DX =    0.0                 !
 ! D39   D(10,11,12,7)           0.0003         -DE/DX =    0.0                 !
 ! D40   D(10,11,12,19)       -179.9973         -DE/DX =    0.0                 !
 --------------------------------------------------------------------------------
 GradGradGradGradGradGradGradGradGradGradGradGradGradGradGradGradGradGrad

                          Input orientation:                          
 ---------------------------------------------------------------------
 Center     Atomic      Atomic             Coordinates (Angstroms)
 Number     Number       Type             X           Y           Z
 ---------------------------------------------------------------------
      1          7           0        1.159819   -0.364238    0.024513
      2          6           0        2.358675   -0.308507    0.024334
      3          6           0        4.591910   -1.404308    0.023132
      4          6           0        3.814669   -0.235187    0.023885
      5          6           0        4.472114    1.055859    0.024211
      6          6           0        5.850623    1.133402    0.023809
      7          6           0        6.691381   -0.048818    0.023014
      8          6           0        6.020671   -1.343838    0.022694
      9          6           0        6.853371   -2.510924    0.021956
     10          6           0        8.250294   -2.361656    0.021681
     11          6           0        9.042173   -1.103522    0.021688
     12          6           0        8.121695   -0.005617    0.022396
     13          7           0        9.664713   -4.642342    0.020857
     14          6           0        9.023750   -3.628522    0.021233
     15          1           0        4.097024   -2.386141    0.022878
     16          1           0        3.853449    1.962834    0.024778
     17          1           0        6.341524    2.116898    0.024064
     18          1           0        6.373066   -3.501259    0.021661
     19          1           0        8.532027    1.020885    0.022457
 ---------------------------------------------------------------------
                    Distance matrix (angstroms):
                    1          2          3          4          5
     1  N    0.000000
     2  C    1.200151   0.000000
     3  C    3.586224   2.487594   0.000000
     4  C    2.657985   1.457839   1.403905   0.000000
     5  C    3.603883   2.515575   2.463082   1.448804   0.000000
     6  C    4.924081   3.777937   2.832725   2.453191   1.380688
     7  C    5.540548   4.340482   2.499026   2.882742   2.479003
     8  C    4.958579   3.805539   1.430040   2.468917   2.855972
     9  C    6.084801   5.005291   2.517698   3.796405   4.288627
    10  C    7.366446   6.239119   3.781572   4.919009   5.094512
    11  C    7.916948   6.730617   4.460416   5.299133   5.054540
    12  C    6.971107   5.770975   3.796804   4.313140   3.800813
    13  N    9.520263   8.494723   6.018155   7.324346   7.709253
    14  C    8.514515   7.446189   4.958663   6.216853   6.531525
    15  H    3.565847   2.708952   1.099503   2.169408   3.462377
    16  H    3.559622   2.719069   3.447169   2.198362   1.097885
    17  H    5.745094   4.663226   3.931926   3.452144   2.149534
    18  H    6.084312   5.129231   2.751313   4.148811   4.937707
    19  H    7.501202   6.314868   4.626671   4.881719   4.060064
                    6          7          8          9         10
     6  C    0.000000
     7  C    1.450696   0.000000
     8  C    2.483070   1.458399   0.000000
     9  C    3.779764   2.467429   1.433694   0.000000
    10  C    4.239558   2.789163   2.450954   1.404876   0.000000
    11  C    3.897413   2.576553   3.031044   2.602237   1.486598
    12  C    2.540696   1.430967   2.491012   2.808061   2.359546
    13  N    6.921453   5.471852   4.915198   3.527972   2.683675
    14  C    5.722295   4.272497   3.773363   2.441224   1.484313
    15  H    3.932212   3.491957   2.187878   2.759170   4.153342
    16  H    2.162559   3.478592   3.953597   5.386469   6.167128
    17  H    1.099204   2.193793   3.475578   4.656042   4.868353
    18  H    4.664015   3.467084   2.186012   1.100662   2.196060
    19  H    2.683764   2.128907   3.449467   3.910442   3.394253
                   11         12         13         14         15
    11  C    0.000000
    12  C    1.432716   0.000000
    13  N    3.593161   4.886729   0.000000
    14  C    2.525067   3.733516   1.199443   0.000000
    15  H    5.108778   4.675989   6.007462   5.080959   0.000000
    16  H    6.027056   4.700291   8.797678   7.615463   4.355790
    17  H    4.202930   2.770214   7.531993   6.340678   5.031415
    18  H    3.587935   3.908608   3.483821   2.653737   2.534533
    19  H    2.184800   1.105477   5.775389   4.675337   5.592591
                   16         17         18         19
    16  H    0.000000
    17  H    2.492840   0.000000
    18  H    6.017042   5.618247   0.000000
    19  H    4.772459   2.449399   5.011078   0.000000
 Stoichiometry    C12H5N2(1-)
 Framework group  C1[X(C12H5N2)]
 Deg. of freedom    51
 Full point group                 C1      NOp   1
 Largest Abelian subgroup         C1      NOp   1
 Largest concise Abelian subgroup C1      NOp   1
                         Standard orientation:                         
 ---------------------------------------------------------------------
 Center     Atomic      Atomic             Coordinates (Angstroms)
 Number     Number       Type             X           Y           Z
 ---------------------------------------------------------------------
      1          7           0       -4.748730   -1.564121   -0.000101
      2          6           0       -3.703073   -0.975085    0.000077
      3          6           0       -1.215614   -0.949232   -0.000075
      4          6           0       -2.435672   -0.254676    0.000060
      5          6           0       -2.429222    1.194113    0.000179
      6          6           0       -1.232924    1.883440    0.000183
      7          6           0        0.049754    1.205756    0.000029
      8          6           0        0.033244   -0.252550   -0.000086
      9          6           0        1.301918   -0.920342   -0.000191
     10          6           0        2.482400   -0.158673   -0.000076
     11          6           0        2.623720    1.321193   -0.000224
     12          6           0        1.307768    1.887713   -0.000156
     13          7           0        4.771531   -1.559382    0.000272
     14          6           0        3.743044   -0.942229    0.000122
     15          1           0       -1.215967   -2.048736   -0.000171
     16          1           0       -3.389735    1.725869    0.000262
     17          1           0       -1.236879    2.982636    0.000277
     18          1           0        1.318413   -2.020880   -0.000319
     19          1           0        1.212511    2.989078   -0.000294
 ---------------------------------------------------------------------
 Rotational constants (GHZ):      1.7842900      0.3714587      0.3074524

 **********************************************************************

            Population analysis using the SCF density.

 **********************************************************************

 Orbital symmetries:
       Occupied  (A) (A) (A) (A) (A) (A) (A) (A) (A) (A) (A) (A)
                 (A) (A) (A) (A) (A) (A) (A) (A) (A) (A) (A) (A)
                 (A) (A) (A) (A) (A) (A) (A) (A) (A) (A) (A) (A)
                 (A) (A) (A) (A) (A) (A) (A) (A) (A) (A)
       Virtual   (A) (A) (A) (A) (A) (A) (A) (A) (A) (A) (A) (A)
                 (A) (A) (A) (A) (A) (A) (A) (A) (A) (A) (A) (A)
                 (A) (A) (A) (A) (A)
 The electronic state is 1-A.
 Alpha  occ. eigenvalues --  -13.99950 -13.94991  -9.91167  -9.90478  -9.89269
 Alpha  occ. eigenvalues --   -9.88599  -9.87501  -9.87127  -9.86458  -9.85535
 Alpha  occ. eigenvalues --   -9.85465  -9.84943  -9.79550  -9.67668  -0.73525
 Alpha  occ. eigenvalues --   -0.69159  -0.68087  -0.62137  -0.58939  -0.54931
 Alpha  occ. eigenvalues --   -0.51646  -0.45199  -0.42770  -0.40707  -0.35112
 Alpha  occ. eigenvalues --   -0.33595  -0.30428  -0.27024  -0.25630  -0.23621
 Alpha  occ. eigenvalues --   -0.22887  -0.21373  -0.18973  -0.17754  -0.17054
 Alpha  occ. eigenvalues --   -0.15862  -0.14622  -0.14267  -0.13548  -0.11157
 Alpha  occ. eigenvalues --   -0.09985  -0.08638  -0.08391  -0.02197   0.00965
 Alpha  occ. eigenvalues --    0.10639
 Alpha virt. eigenvalues --    0.16622   0.19502   0.24811   0.26150   0.28866
 Alpha virt. eigenvalues --    0.29947   0.33465   0.38029   0.42090   0.45381
 Alpha virt. eigenvalues --    0.47042   0.49773   0.52390   0.54046   0.56383
 Alpha virt. eigenvalues --    0.57260   0.60746   0.62313   0.65575   0.68655
 Alpha virt. eigenvalues --    0.70407   0.75871   0.78053   0.81342   0.83823
 Alpha virt. eigenvalues --    0.91246   0.93178   1.05946   1.08874
          Condensed to atoms (all electrons):
               1          2          3          4          5          6
     1  N    6.592348   0.659657  -0.000106  -0.011093  -0.000078  -0.000001
     2  C    0.659657   4.934556  -0.029010   0.423416  -0.028159   0.000823
     3  C   -0.000106  -0.029010   4.824029   0.507857  -0.029184  -0.009460
     4  C   -0.011093   0.423416   0.507857   4.778970   0.455610  -0.028878
     5  C   -0.000078  -0.028159  -0.029184   0.455610   4.830247   0.535731
     6  C   -0.000001   0.000823  -0.009460  -0.028878   0.535731   4.834492
     7  C    0.000000   0.000013  -0.025443  -0.008560  -0.026169   0.453648
     8  C   -0.000001   0.000841   0.477360  -0.027814  -0.008637  -0.027617
     9  C    0.000000  -0.000006  -0.027711   0.000741   0.000031   0.000867
    10  C    0.000000   0.000000   0.000733  -0.000007   0.000000   0.000047
    11  C    0.000000   0.000000   0.000003   0.000000  -0.000006   0.000609
    12  C    0.000000   0.000000   0.000768   0.000034   0.000666  -0.025987
    13  N    0.000000   0.000000   0.000000   0.000000   0.000000   0.000000
    14  C    0.000000   0.000000  -0.000007   0.000000   0.000000   0.000000
    15  H    0.000061  -0.003466   0.385056  -0.025574   0.001277   0.000024
    16  H    0.000057  -0.002964   0.001209  -0.025097   0.387130  -0.024793
    17  H    0.000000  -0.000017   0.000021   0.001395  -0.026749   0.385485
    18  H    0.000000   0.000000  -0.003361   0.000011  -0.000001  -0.000016
    19  H    0.000000   0.000000  -0.000021  -0.000001   0.000012  -0.004082
               7          8          9         10         11         12
     1  N    0.000000  -0.000001   0.000000   0.000000   0.000000   0.000000
     2  C    0.000013   0.000841  -0.000006   0.000000   0.000000   0.000000
     3  C   -0.025443   0.477360  -0.027711   0.000733   0.000003   0.000768
     4  C   -0.008560  -0.027814   0.000741  -0.000007   0.000000   0.000034
     5  C   -0.026169  -0.008637   0.000031   0.000000  -0.000006   0.000666
     6  C    0.453648  -0.027617   0.000867   0.000047   0.000609  -0.025987
     7  C    4.824412   0.448645  -0.029390  -0.013204  -0.017149   0.468502
     8  C    0.448645   4.807508   0.471286  -0.030199  -0.005744  -0.029956
     9  C   -0.029390   0.471286   4.868655   0.500663  -0.016858  -0.012227
    10  C   -0.013204  -0.030199   0.500663   4.875685   0.384360  -0.029105
    11  C   -0.017149  -0.005744  -0.016858   0.384360   5.476012   0.445862
    12  C    0.468502  -0.029956  -0.012227  -0.029105   0.445862   4.945863
    13  N    0.000000  -0.000001  -0.000032  -0.010486   0.000016  -0.000002
    14  C    0.000006   0.000994  -0.039721   0.396363  -0.031845   0.001391
    15  H    0.001211  -0.024202  -0.003303   0.000015   0.000000  -0.000016
    16  H    0.001311   0.000028   0.000001   0.000000   0.000000  -0.000015
    17  H   -0.025148   0.001257  -0.000017   0.000001   0.000010  -0.003015
    18  H    0.001220  -0.026318   0.381107  -0.022900   0.000898   0.000073
    19  H   -0.036233   0.001369   0.000005   0.002273  -0.032416   0.379784
              13         14         15         16         17         18
     1  N    0.000000   0.000000   0.000061   0.000057   0.000000   0.000000
     2  C    0.000000   0.000000  -0.003466  -0.002964  -0.000017   0.000000
     3  C    0.000000  -0.000007   0.385056   0.001209   0.000021  -0.003361
     4  C    0.000000   0.000000  -0.025574  -0.025097   0.001395   0.000011
     5  C    0.000000   0.000000   0.001277   0.387130  -0.026749  -0.000001
     6  C    0.000000   0.000000   0.000024  -0.024793   0.385485  -0.000016
     7  C    0.000000   0.000006   0.001211   0.001311  -0.025148   0.001220
     8  C   -0.000001   0.000994  -0.024202   0.000028   0.001257  -0.026318
     9  C   -0.000032  -0.039721  -0.003303   0.000001  -0.000017   0.381107
    10  C   -0.010486   0.396363   0.000015   0.000000   0.000001  -0.022900
    11  C    0.000016  -0.031845   0.000000   0.000000   0.000010   0.000898
    12  C   -0.000002   0.001391  -0.000016  -0.000015  -0.003015   0.000073
    13  N    6.617406   0.660970   0.000000   0.000000   0.000000   0.000048
    14  C    0.660970   4.972450  -0.000001   0.000000   0.000000  -0.003659
    15  H    0.000000  -0.000001   0.600006  -0.000033   0.000002   0.001017
    16  H    0.000000   0.000000  -0.000033   0.605976  -0.003924   0.000000
    17  H    0.000000   0.000000   0.000002  -0.003924   0.609317   0.000000
    18  H    0.000048  -0.003659   0.001017   0.000000   0.000000   0.620692
    19  H    0.000000  -0.000014   0.000000  -0.000001   0.001410   0.000003
              19
     1  N    0.000000
     2  C    0.000000
     3  C   -0.000021
     4  C   -0.000001
     5  C    0.000012
     6  C   -0.004082
     7  C   -0.036233
     8  C    0.001369
     9  C    0.000005
    10  C    0.002273
    11  C   -0.032416
    12  C    0.379784
    13  N    0.000000
    14  C   -0.000014
    15  H    0.000000
    16  H   -0.000001
    17  H    0.001410
    18  H    0.000003
    19  H    0.669203
 Mulliken charges:
               1
     1  N   -0.240845
     2  C    0.044316
     3  C   -0.072734
     4  C   -0.041010
     5  C   -0.091721
     6  C   -0.090893
     7  C   -0.017672
     8  C   -0.028799
     9  C   -0.094089
    10  C   -0.054239
    11  C   -0.203752
    12  C   -0.142622
    13  N   -0.267918
    14  C    0.043072
    15  H    0.067925
    16  H    0.061114
    17  H    0.059972
    18  H    0.051186
    19  H    0.018707
 Sum of Mulliken charges =  -1.00000
 Mulliken charges with hydrogens summed into heavy atoms:
               1
     1  N   -0.240845
     2  C    0.044316
     3  C   -0.004808
     4  C   -0.041010
     5  C   -0.030607
     6  C   -0.030921
     7  C   -0.017672
     8  C   -0.028799
     9  C   -0.042902
    10  C   -0.054239
    11  C   -0.203752
    12  C   -0.123915
    13  N   -0.267918
    14  C    0.043072
 Electronic spatial extent (au):  <R**2>=           3247.8178
 Charge=             -1.0000 electrons
 Dipole moment (field-independent basis, Debye):
    X=             -5.7693    Y=              0.1745    Z=              0.0003  Tot=              5.7719
 Quadrupole moment (field-independent basis, Debye-Ang):
   XX=           -150.6999   YY=            -84.4432   ZZ=            -74.1544
   XY=             -8.5875   XZ=             -0.0015   YZ=              0.0018
 Traceless Quadrupole moment (field-independent basis, Debye-Ang):
   XX=            -47.6007   YY=             18.6560   ZZ=             28.9447
   XY=             -8.5875   XZ=             -0.0015   YZ=              0.0018
 Octapole moment (field-independent basis, Debye-Ang**2):
  XXX=            -72.5690  YYY=             -5.0741  ZZZ=              0.0006  XYY=            -21.7948
  XXY=             82.8632  XXZ=             -0.0001  XZZ=              0.5855  YZZ=             -3.4379
  YYZ=              0.0010  XYZ=              0.0085
 Hexadecapole moment (field-independent basis, Debye-Ang**3):
 XXXX=          -5050.3396 YYYY=           -806.6532 ZZZZ=            -58.3640 XXXY=            -83.3138
 XXXZ=             -0.0617 YYYX=            -34.9386 YYYZ=              0.0073 ZZZX=              0.0052
 ZZZY=             -0.0006 XXYY=           -921.3424 XXZZ=           -550.1264 YYZZ=           -145.9127
 XXYZ=              0.0230 YYXZ=             -0.0044 ZZXY=              0.0624
 N-N= 6.818519485317D+02 E-N=-2.685547047423D+03  KE= 5.547473209023D+02
 1\1\GINC-N052\FOpt\RB3LYP\STO-3G\C12H5N2(1-)\R2532\15-Jun-2021\0\\#N B
 3LYP/STO-3G OPT\\2Naph\\-1,1\N,1.1598189114,-0.3642383201,0.0245134069
 \C,2.3586749691,-0.3085068575,0.0243338217\C,4.5919104066,-1.404308148
 2,0.0231324843\C,3.8146691954,-0.2351865232,0.023885215\C,4.4721141231
 ,1.0558587084,0.0242113088\C,5.8506232866,1.1334021122,0.0238085869\C,
 6.6913809187,-0.0488181305,0.0230138296\C,6.0206709147,-1.3438380507,0
 .022694059\C,6.8533708582,-2.5109236568,0.0219560225\C,8.2502942762,-2
 .3616556044,0.0216813907\C,9.0421734007,-1.1035216906,0.0216875778\C,8
 .1216953233,-0.0056172008,0.0223956365\N,9.664712789,-4.6423418799,0.0
 208569916\C,9.0237503119,-3.628521727,0.0212326071\H,4.0970242179,-2.3
 861407611,0.0228775241\H,3.853448876,1.9628335907,0.0247781552\H,6.341
 5237608,2.1168984339,0.0240638935\H,6.3730662524,-3.5012591065,0.02166
 0717\H,8.532027208,1.0208848123,0.0224567717\\Version=ES64L-G09RevD.01
 \State=1-A\HF=-562.518018\RMSD=8.688e-09\RMSF=9.525e-05\Dipole=-1.9963
 251,1.0823129,0.0010811\Quadrupole=-30.55295,9.0332619,21.5196881,15.9
 887127,0.0210299,-0.0073146\PG=C01 [X(C12H5N2)]\\@


 I DO NOT DEFINE TIME, SPACE, PLACE, AND MOTION, AS BEING WELL KNOWN TO ALL.
                                            -- NEWTON (1642-1726), PRINCIPIA
 Job cpu time:       0 days  0 hours  2 minutes 53.0 seconds.
 File lengths (MBytes):  RWF=      5 Int=      0 D2E=      0 Chk=      2 Scr=      1
 Normal termination of Gaussian 09 at Tue Jun 15 11:11:50 2021.
