 Entering Gaussian System, Link 0=/usr/local/apps//g09/g09
 Input=23.com
 Output=23.out
 Initial command:
 /usr/local/apps//g09/l1.exe "/tmp/bnp.472678.sequoia/Gau-26572.inp" -scrdir="/tmp/bnp.472678.sequoia/"
 Entering Link 1 = /usr/local/apps//g09/l1.exe PID=     26573.
  
 Copyright (c) 1988,1990,1992,1993,1995,1998,2003,2009,2013,
            Gaussian, Inc.  All Rights Reserved.
  
 This is part of the Gaussian(R) 09 program.  It is based on
 the Gaussian(R) 03 system (copyright 2003, Gaussian, Inc.),
 the Gaussian(R) 98 system (copyright 1998, Gaussian, Inc.),
 the Gaussian(R) 94 system (copyright 1995, Gaussian, Inc.),
 the Gaussian 92(TM) system (copyright 1992, Gaussian, Inc.),
 the Gaussian 90(TM) system (copyright 1990, Gaussian, Inc.),
 the Gaussian 88(TM) system (copyright 1988, Gaussian, Inc.),
 the Gaussian 86(TM) system (copyright 1986, Carnegie Mellon
 University), and the Gaussian 82(TM) system (copyright 1983,
 Carnegie Mellon University). Gaussian is a federally registered
 trademark of Gaussian, Inc.
  
 This software contains proprietary and confidential information,
 including trade secrets, belonging to Gaussian, Inc.
  
 This software is provided under written license and may be
 used, copied, transmitted, or stored only in accord with that
 written license.
  
 The following legend is applicable only to US Government
 contracts under FAR:
  
                    RESTRICTED RIGHTS LEGEND
  
 Use, reproduction and disclosure by the US Government is
 subject to restrictions as set forth in subparagraphs (a)
 and (c) of the Commercial Computer Software - Restricted
 Rights clause in FAR 52.227-19.
  
 Gaussian, Inc.
 340 Quinnipiac St., Bldg. 40, Wallingford CT 06492
  
  
 ---------------------------------------------------------------
 Warning -- This program may not be used in any manner that
 competes with the business of Gaussian, Inc. or will provide
 assistance to any competitor of Gaussian, Inc.  The licensee
 of this program is prohibited from giving any competitor of
 Gaussian, Inc. access to this program.  By using this program,
 the user acknowledges that Gaussian, Inc. is engaged in the
 business of creating and licensing software in the field of
 computational chemistry and represents and warrants to the
 licensee that it is not a competitor of Gaussian, Inc. and that
 it will not use this program in any manner prohibited above.
 ---------------------------------------------------------------
  

 Cite this work as:
 Gaussian 09, Revision D.01,
 M. J. Frisch, G. W. Trucks, H. B. Schlegel, G. E. Scuseria, 
 M. A. Robb, J. R. Cheeseman, G. Scalmani, V. Barone, B. Mennucci, 
 G. A. Petersson, H. Nakatsuji, M. Caricato, X. Li, H. P. Hratchian, 
 A. F. Izmaylov, J. Bloino, G. Zheng, J. L. Sonnenberg, M. Hada, 
 M. Ehara, K. Toyota, R. Fukuda, J. Hasegawa, M. Ishida, T. Nakajima, 
 Y. Honda, O. Kitao, H. Nakai, T. Vreven, J. A. Montgomery, Jr., 
 J. E. Peralta, F. Ogliaro, M. Bearpark, J. J. Heyd, E. Brothers, 
 K. N. Kudin, V. N. Staroverov, T. Keith, R. Kobayashi, J. Normand, 
 K. Raghavachari, A. Rendell, J. C. Burant, S. S. Iyengar, J. Tomasi, 
 M. Cossi, N. Rega, J. M. Millam, M. Klene, J. E. Knox, J. B. Cross, 
 V. Bakken, C. Adamo, J. Jaramillo, R. Gomperts, R. E. Stratmann, 
 O. Yazyev, A. J. Austin, R. Cammi, C. Pomelli, J. W. Ochterski, 
 R. L. Martin, K. Morokuma, V. G. Zakrzewski, G. A. Voth, 
 P. Salvador, J. J. Dannenberg, S. Dapprich, A. D. Daniels, 
 O. Farkas, J. B. Foresman, J. V. Ortiz, J. Cioslowski, 
 and D. J. Fox, Gaussian, Inc., Wallingford CT, 2013.
 
 ******************************************
 Gaussian 09:  ES64L-G09RevD.01 24-Apr-2013
                15-Jun-2021 
 ******************************************
 -------------------
 #N B3LYP/STO-3G OPT
 -------------------
 1/14=-1,18=20,19=15,26=3,38=1/1,3;
 2/9=110,12=2,17=6,18=5,40=1/2;
 3/6=3,11=2,16=1,25=1,30=1,71=1,74=-5/1,2,3;
 4//1;
 5/5=2,38=5/2;
 6/7=2,8=2,9=2,10=2,28=1/1;
 7//1,2,3,16;
 1/14=-1,18=20,19=15,26=3/3(2);
 2/9=110/2;
 99//99;
 2/9=110/2;
 3/6=3,11=2,16=1,25=1,30=1,71=1,74=-5/1,2,3;
 4/5=5,16=3,69=1/1;
 5/5=2,38=5/2;
 7//1,2,3,16;
 1/14=-1,18=20,19=15,26=3/3(-5);
 2/9=110/2;
 6/7=2,8=2,9=2,10=2,19=2,28=1/1;
 99/9=1/99;
 -----
 1Naph
 -----
 Symbolic Z-matrix:
 Charge = -1 Multiplicity = 1
 N                     0.99723   0.20436  -0.00372 
 C                     2.14566   0.04205  -0.00365 
 C                     3.57663  -0.08468  -0.00413 
 C                     4.29276   1.12936  -0.00314 
 C                     5.6799    1.1366   -0.00276 
 C                     6.36541  -0.06968  -0.00256 
 C                     5.67791  -1.28649  -0.00328 
 C                     4.25447  -1.35036  -0.00363 
 C                     3.68451  -2.67163  -0.00371 
 C                     4.5024   -3.8187   -0.00362 
 C                     5.88465  -3.70365  -0.00339 
 C                     6.45709  -2.44285  -0.00336 
 N                     1.14324  -3.20933  -0.00429 
 C                     2.26894  -2.92953  -0.0038 
 H                     3.76246   2.0819   -0.00294 
 H                     6.22712   2.07628  -0.00237 
 H                     7.45583  -0.05259  -0.00298 
 H                     4.05721  -4.81385  -0.0037 
 H                     6.51912  -4.58454  -0.00363 
 

 GradGradGradGradGradGradGradGradGradGradGradGradGradGradGradGradGradGrad
 Berny optimization.
 Initialization pass.
                           ----------------------------
                           !    Initial Parameters    !
                           ! (Angstroms and Degrees)  !
 --------------------------                            --------------------------
 ! Name  Definition              Value          Derivative Info.                !
 --------------------------------------------------------------------------------
 ! R1    R(1,2)                  1.1598         estimate D2E/DX2                !
 ! R2    R(2,3)                  1.4366         estimate D2E/DX2                !
 ! R3    R(3,4)                  1.4095         estimate D2E/DX2                !
 ! R4    R(3,8)                  1.4358         estimate D2E/DX2                !
 ! R5    R(4,5)                  1.3872         estimate D2E/DX2                !
 ! R6    R(4,15)                 1.0902         estimate D2E/DX2                !
 ! R7    R(5,6)                  1.3875         estimate D2E/DX2                !
 ! R8    R(5,16)                 1.0874         estimate D2E/DX2                !
 ! R9    R(6,7)                  1.3976         estimate D2E/DX2                !
 ! R10   R(6,17)                 1.0906         estimate D2E/DX2                !
 ! R11   R(7,8)                  1.4249         estimate D2E/DX2                !
 ! R12   R(7,12)                 1.3944         estimate D2E/DX2                !
 ! R13   R(8,9)                  1.439          estimate D2E/DX2                !
 ! R14   R(9,10)                 1.4088         estimate D2E/DX2                !
 ! R15   R(9,14)                 1.4389         estimate D2E/DX2                !
 ! R16   R(10,11)                1.387          estimate D2E/DX2                !
 ! R17   R(10,18)                1.0902         estimate D2E/DX2                !
 ! R18   R(11,12)                1.3847         estimate D2E/DX2                !
 ! R19   R(11,19)                1.0856         estimate D2E/DX2                !
 ! R20   R(13,14)                1.16           estimate D2E/DX2                !
 ! A1    A(2,3,4)              115.4742         estimate D2E/DX2                !
 ! A2    A(2,3,8)              123.2325         estimate D2E/DX2                !
 ! A3    A(4,3,8)              121.2933         estimate D2E/DX2                !
 ! A4    A(3,4,5)              120.8343         estimate D2E/DX2                !
 ! A5    A(3,4,15)             120.3591         estimate D2E/DX2                !
 ! A6    A(5,4,15)             118.8066         estimate D2E/DX2                !
 ! A7    A(4,5,6)              119.3098         estimate D2E/DX2                !
 ! A8    A(4,5,16)             120.5133         estimate D2E/DX2                !
 ! A9    A(6,5,16)             120.1768         estimate D2E/DX2                !
 ! A10   A(5,6,7)              120.9246         estimate D2E/DX2                !
 ! A11   A(5,6,17)             118.711          estimate D2E/DX2                !
 ! A12   A(7,6,17)             120.3644         estimate D2E/DX2                !
 ! A13   A(6,7,8)              122.0357         estimate D2E/DX2                !
 ! A14   A(6,7,12)             116.5605         estimate D2E/DX2                !
 ! A15   A(8,7,12)             121.4038         estimate D2E/DX2                !
 ! A16   A(3,8,7)              115.6023         estimate D2E/DX2                !
 ! A17   A(3,8,9)              128.4945         estimate D2E/DX2                !
 ! A18   A(7,8,9)              115.9032         estimate D2E/DX2                !
 ! A19   A(8,9,10)             121.1761         estimate D2E/DX2                !
 ! A20   A(8,9,14)             123.6594         estimate D2E/DX2                !
 ! A21   A(10,9,14)            115.1645         estimate D2E/DX2                !
 ! A22   A(9,10,11)            120.7319         estimate D2E/DX2                !
 ! A23   A(9,10,18)            120.4083         estimate D2E/DX2                !
 ! A24   A(11,10,18)           118.8598         estimate D2E/DX2                !
 ! A25   A(10,11,12)           119.1774         estimate D2E/DX2                !
 ! A26   A(10,11,19)           121.0057         estimate D2E/DX2                !
 ! A27   A(12,11,19)           119.8169         estimate D2E/DX2                !
 ! A28   A(7,12,11)            121.6076         estimate D2E/DX2                !
 ! A29   L(1,2,3,13,-1)        182.9834         estimate D2E/DX2                !
 ! A30   L(9,14,13,1,-1)       183.633          estimate D2E/DX2                !
 ! A31   L(1,2,3,13,-2)        179.9763         estimate D2E/DX2                !
 ! A32   L(9,14,13,1,-2)       179.9793         estimate D2E/DX2                !
 ! D1    D(2,3,4,5)            179.9654         estimate D2E/DX2                !
 ! D2    D(2,3,4,15)            -0.0518         estimate D2E/DX2                !
 ! D3    D(8,3,4,5)              0.0536         estimate D2E/DX2                !
 ! D4    D(8,3,4,15)          -179.9636         estimate D2E/DX2                !
 ! D5    D(2,3,8,7)           -179.958          estimate D2E/DX2                !
 ! D6    D(2,3,8,9)              0.0559         estimate D2E/DX2                !
 ! D7    D(4,3,8,7)             -0.0532         estimate D2E/DX2                !
 ! D8    D(4,3,8,9)            179.9607         estimate D2E/DX2                !
 ! D9    D(3,4,5,6)             -0.0382         estimate D2E/DX2                !
 ! D10   D(3,4,5,16)           179.9771         estimate D2E/DX2                !
 ! D11   D(15,4,5,6)           179.9787         estimate D2E/DX2                !
 ! D12   D(15,4,5,16)           -0.006          estimate D2E/DX2                !
 ! D13   D(4,5,6,7)              0.026          estimate D2E/DX2                !
 ! D14   D(4,5,6,17)           179.957          estimate D2E/DX2                !
 ! D15   D(16,5,6,7)          -179.9892         estimate D2E/DX2                !
 ! D16   D(16,5,6,17)           -0.0583         estimate D2E/DX2                !
 ! D17   D(5,6,7,8)             -0.0292         estimate D2E/DX2                !
 ! D18   D(5,6,7,12)           179.9838         estimate D2E/DX2                !
 ! D19   D(17,6,7,8)          -179.959          estimate D2E/DX2                !
 ! D20   D(17,6,7,12)            0.0539         estimate D2E/DX2                !
 ! D21   D(6,7,8,3)              0.0414         estimate D2E/DX2                !
 ! D22   D(6,7,8,9)           -179.9707         estimate D2E/DX2                !
 ! D23   D(12,7,8,3)          -179.9722         estimate D2E/DX2                !
 ! D24   D(12,7,8,9)             0.0157         estimate D2E/DX2                !
 ! D25   D(6,7,12,11)          179.9681         estimate D2E/DX2                !
 ! D26   D(8,7,12,11)           -0.0191         estimate D2E/DX2                !
 ! D27   D(3,8,9,10)           179.9782         estimate D2E/DX2                !
 ! D28   D(3,8,9,14)            -0.0258         estimate D2E/DX2                !
 ! D29   D(7,8,9,10)            -0.0079         estimate D2E/DX2                !
 ! D30   D(7,8,9,14)           179.9881         estimate D2E/DX2                !
 ! D31   D(8,9,10,11)            0.0029         estimate D2E/DX2                !
 ! D32   D(8,9,10,18)         -179.9989         estimate D2E/DX2                !
 ! D33   D(14,9,10,11)        -179.9934         estimate D2E/DX2                !
 ! D34   D(14,9,10,18)           0.0048         estimate D2E/DX2                !
 ! D35   D(9,10,11,12)          -0.0053         estimate D2E/DX2                !
 ! D36   D(9,10,11,19)        -179.9809         estimate D2E/DX2                !
 ! D37   D(18,10,11,12)        179.9966         estimate D2E/DX2                !
 ! D38   D(18,10,11,19)          0.0209         estimate D2E/DX2                !
 ! D39   D(10,11,12,7)           0.0133         estimate D2E/DX2                !
 ! D40   D(19,11,12,7)         179.9892         estimate D2E/DX2                !
 --------------------------------------------------------------------------------
 Trust Radius=3.00D-01 FncErr=1.00D-07 GrdErr=1.00D-06
 Number of steps in this run=    102 maximum allowed number of steps=    114.
 GradGradGradGradGradGradGradGradGradGradGradGradGradGradGradGradGradGrad

                          Input orientation:                          
 ---------------------------------------------------------------------
 Center     Atomic      Atomic             Coordinates (Angstroms)
 Number     Number       Type             X           Y           Z
 ---------------------------------------------------------------------
      1          7           0        0.997230    0.204360   -0.003720
      2          6           0        2.145660    0.042050   -0.003650
      3          6           0        3.576630   -0.084680   -0.004130
      4          6           0        4.292760    1.129360   -0.003140
      5          6           0        5.679900    1.136600   -0.002760
      6          6           0        6.365410   -0.069680   -0.002560
      7          6           0        5.677910   -1.286490   -0.003280
      8          6           0        4.254470   -1.350360   -0.003630
      9          6           0        3.684510   -2.671630   -0.003710
     10          6           0        4.502400   -3.818700   -0.003620
     11          6           0        5.884650   -3.703650   -0.003390
     12          6           0        6.457090   -2.442850   -0.003360
     13          7           0        1.143240   -3.209330   -0.004290
     14          6           0        2.268940   -2.929530   -0.003800
     15          1           0        3.762460    2.081900   -0.002940
     16          1           0        6.227120    2.076280   -0.002370
     17          1           0        7.455830   -0.052590   -0.002980
     18          1           0        4.057210   -4.813850   -0.003700
     19          1           0        6.519120   -4.584540   -0.003630
 ---------------------------------------------------------------------
                    Distance matrix (angstroms):
                    1          2          3          4          5
     1  N    0.000000
     2  C    1.159843   0.000000
     3  C    2.595544   1.436571   0.000000
     4  C    3.422885   2.406716   1.409516   0.000000
     5  C    4.774565   3.699850   2.432133   1.387159   0.000000
     6  C    5.375170   4.221229   2.788821   2.394489   1.387456
     7  C    4.912372   3.773832   2.420687   2.784775   2.423091
     8  C    3.609261   2.527031   1.435762   2.480016   2.866500
     9  C    3.936088   3.119634   2.589198   3.849350   4.299325
    10  C    5.335844   4.523230   3.847071   4.952499   5.093280
    11  C    6.257749   5.292477   4.292307   5.088428   4.844579
    12  C    6.067767   4.976259   3.722636   4.176722   3.662852
    13  N    3.416811   3.402399   3.960407   5.361316   6.282388
    14  C    3.382087   2.974136   3.131010   4.535464   5.307359
    15  H    3.342402   2.602889   2.174535   1.090207   2.137795
    16  H    5.554803   4.560308   3.419773   2.153696   1.087404
    17  H    6.463709   5.311013   3.879333   3.376687   2.137311
    18  H    5.877577   5.218600   4.753526   5.947876   6.167737
    19  H    7.309229   6.366513   5.376522   6.132319   5.782364
                    6          7          8          9         10
     6  C    0.000000
     7  C    1.397599   0.000000
     8  C    2.469050   1.424872   0.000000
     9  C    3.735956   2.427397   1.438961   0.000000
    10  C    4.186402   2.791758   2.480760   1.408799   0.000000
    11  C    3.665633   2.425985   2.862772   2.430161   1.387030
    12  C    2.374940   1.394378   2.458672   2.782003   2.390351
    13  N    6.093313   4.925500   3.624296   2.597532   3.413984
    14  C    4.995979   3.784264   2.536948   1.438871   2.403948
    15  H    3.377076   3.874919   3.467345   4.754169   5.946814
    16  H    2.150411   3.407324   3.953886   5.385863   6.142105
    17  H    1.090554   2.164142   3.454405   4.591538   4.786056
    18  H    5.275883   3.881873   3.469103   2.174399   1.090192
    19  H    4.517476   3.403640   3.948235   3.419684   2.157237
                   11         12         13         14         15
    11  C    0.000000
    12  C    1.384668   0.000000
    13  N    4.767108   5.368845   0.000000
    14  C    3.697651   4.216332   1.159952   0.000000
    15  H    6.162490   5.266345   5.904018   5.229248   0.000000
    16  H    5.790067   4.524978   7.333724   6.381640   2.464666
    17  H    3.974776   2.590526   7.057889   5.931325   4.265798
    18  H    2.138243   3.373583   3.326516   2.597801   6.902047
    19  H    1.085596   2.142588   5.548990   4.561040   7.213917
                   16         17         18         19
    16  H    0.000000
    17  H    2.458011   0.000000
    18  H    7.223739   5.849805   0.000000
    19  H    6.667217   4.627742   2.472566   0.000000
 Stoichiometry    C12H5N2(1-)
 Framework group  C1[X(C12H5N2)]
 Deg. of freedom    51
 Full point group                 C1      NOp   1
 Largest Abelian subgroup         C1      NOp   1
 Largest concise Abelian subgroup C1      NOp   1
                         Standard orientation:                         
 ---------------------------------------------------------------------
 Center     Atomic      Atomic             Coordinates (Angstroms)
 Number     Number       Type             X           Y           Z
 ---------------------------------------------------------------------
      1          7           0        2.399449   -2.487194    0.000149
      2          6           0        1.369634   -1.953607    0.000029
      3          6           0        0.061445   -1.359993   -0.000697
      4          6           0       -1.016426   -2.268250    0.000015
      5          6           0       -2.327641   -1.815561    0.000141
      6          6           0       -2.574838   -0.450303    0.000362
      7          6           0       -1.523062    0.470051   -0.000085
      8          6           0       -0.158838    0.058770   -0.000167
      9          6           0        0.816639    1.116624    0.000017
     10          6           0        0.424922    2.469869    0.000096
     11          6           0       -0.917393    2.819215    0.000060
     12          6           0       -1.875177    1.819238   -0.000167
     13          7           0        3.392542    0.782113   -0.000034
     14          6           0        2.237714    0.891024    0.000216
     15          1           0       -0.831619   -3.342678    0.000196
     16          1           0       -3.155251   -2.520904    0.000317
     17          1           0       -3.609349   -0.105203   -0.000259
     18          1           0        1.174639    3.261349    0.000218
     19          1           0       -1.224224    3.860547   -0.000189
 ---------------------------------------------------------------------
 Rotational constants (GHZ):      0.9291302      0.8418632      0.4416733
 Standard basis: STO-3G (5D, 7F)
 There are    75 symmetry adapted cartesian basis functions of A   symmetry.
 There are    75 symmetry adapted basis functions of A   symmetry.
    75 basis functions,   225 primitive gaussians,    75 cartesian basis functions
    46 alpha electrons       46 beta electrons
       nuclear repulsion energy       724.2674539024 Hartrees.
 NAtoms=   19 NActive=   19 NUniq=   19 SFac= 1.00D+00 NAtFMM=   60 NAOKFM=F Big=F
 Integral buffers will be    131072 words long.
 Raffenetti 2 integral format.
 Two-electron integral symmetry is turned on.
 One-electron integrals computed using PRISM.
 NBasis=    75 RedAO= T EigKep=  1.55D-01  NBF=    75
 NBsUse=    75 1.00D-06 EigRej= -1.00D+00 NBFU=    75
 ExpMin= 1.69D-01 ExpMax= 9.91D+01 ExpMxC= 9.91D+01 IAcc=1 IRadAn=         1 AccDes= 0.00D+00
 Harris functional with IExCor=  402 and IRadAn=       1 diagonalized for initial guess.
 HarFok:  IExCor=  402 AccDes= 0.00D+00 IRadAn=         1 IDoV= 1 UseB2=F ITyADJ=14
 ICtDFT=  3500011 ScaDFX=  1.000000  1.000000  1.000000  1.000000
 FoFCou: FMM=F IPFlag=           0 FMFlag=      100000 FMFlg1=           0
         NFxFlg=           0 DoJE=T BraDBF=F KetDBF=T FulRan=T
         wScrn=  0.000000 ICntrl=     500 IOpCl=  0 I1Cent=   200000004 NGrid=           0
         NMat0=    1 NMatS0=      1 NMatT0=    0 NMatD0=    1 NMtDS0=    0 NMtDT0=    0
 Petite list used in FoFCou.
 Keep R1 ints in memory in canonical form, NReq=4993994.
 Requested convergence on RMS density matrix=1.00D-08 within 128 cycles.
 Requested convergence on MAX density matrix=1.00D-06.
 Requested convergence on             energy=1.00D-06.
 No special actions if energy rises.
 Integral accuracy reduced to 1.0D-05 until final iterations.
 Rare condition: small coef for last iteration:  0.000D+00
 Rare condition: small coef for last iteration:  0.000D+00
 Problem detected with inexpensive integrals.
 Switching to full accuracy and repeating last cycle.
 SCF Done:  E(RB3LYP) =  -562.473514290     A.U. after   26 cycles
            NFock= 26  Conv=0.94D-08     -V/T= 2.0129

 **********************************************************************

            Population analysis using the SCF density.

 **********************************************************************

 Orbital symmetries:
       Occupied  (A) (A) (A) (A) (A) (A) (A) (A) (A) (A) (A) (A)
                 (A) (A) (A) (A) (A) (A) (A) (A) (A) (A) (A) (A)
                 (A) (A) (A) (A) (A) (A) (A) (A) (A) (A) (A) (A)
                 (A) (A) (A) (A) (A) (A) (A) (A) (A) (A)
       Virtual   (A) (A) (A) (A) (A) (A) (A) (A) (A) (A) (A) (A)
                 (A) (A) (A) (A) (A) (A) (A) (A) (A) (A) (A) (A)
                 (A) (A) (A) (A) (A)
 The electronic state is 1-A.
 Alpha  occ. eigenvalues --  -13.98314 -13.95547  -9.89974  -9.88812  -9.88446
 Alpha  occ. eigenvalues --   -9.87315  -9.86561  -9.86547  -9.86447  -9.86222
 Alpha  occ. eigenvalues --   -9.84818  -9.83025  -9.79030  -9.64051  -0.73401
 Alpha  occ. eigenvalues --   -0.71226  -0.67959  -0.62524  -0.58498  -0.55096
 Alpha  occ. eigenvalues --   -0.51627  -0.45476  -0.42131  -0.40294  -0.35311
 Alpha  occ. eigenvalues --   -0.31976  -0.30770  -0.27564  -0.25805  -0.22018
 Alpha  occ. eigenvalues --   -0.21313  -0.21105  -0.20314  -0.17716  -0.16898
 Alpha  occ. eigenvalues --   -0.15056  -0.14479  -0.13896  -0.12100  -0.11788
 Alpha  occ. eigenvalues --   -0.10508  -0.10025  -0.06417  -0.04208   0.02249
 Alpha  occ. eigenvalues --    0.15448
 Alpha virt. eigenvalues --    0.17451   0.23170   0.24910   0.27830   0.31162
 Alpha virt. eigenvalues --    0.31686   0.37888   0.38975   0.46320   0.48630
 Alpha virt. eigenvalues --    0.49189   0.51510   0.54116   0.56077   0.60720
 Alpha virt. eigenvalues --    0.63292   0.64328   0.65359   0.71181   0.73024
 Alpha virt. eigenvalues --    0.74660   0.76445   0.82034   0.87057   0.88367
 Alpha virt. eigenvalues --    0.98453   1.00676   1.15169   1.17399
          Condensed to atoms (all electrons):
               1          2          3          4          5          6
     1  N    6.568338   0.686752  -0.011164  -0.000377   0.000000   0.000000
     2  C    0.686752   4.897735   0.422774  -0.036775   0.001105   0.000007
     3  C   -0.011164   0.422774   4.774559   0.505610  -0.030222  -0.011347
     4  C   -0.000377  -0.036775   0.505610   4.818590   0.498116  -0.031031
     5  C    0.000000   0.001105  -0.030222   0.498116   4.839519   0.506663
     6  C    0.000000   0.000007  -0.011347  -0.031031   0.506663   4.826743
     7  C   -0.000002   0.000935  -0.028530  -0.011760  -0.030609   0.486592
     8  C    0.000017  -0.026460   0.459278  -0.027275  -0.007754  -0.034647
     9  C    0.000001  -0.002590  -0.024209   0.000619   0.000031   0.000884
    10  C    0.000000   0.000006   0.000630  -0.000005   0.000001  -0.000026
    11  C    0.000000   0.000000   0.000040   0.000001  -0.000020   0.001578
    12  C    0.000000  -0.000009   0.001082   0.000039   0.001294  -0.048066
    13  N   -0.000349  -0.000239   0.000005   0.000000   0.000000   0.000000
    14  C   -0.000308   0.001672  -0.002698   0.000004   0.000000  -0.000007
    15  H    0.000026  -0.004248  -0.024762   0.390065  -0.027059   0.001601
    16  H    0.000000  -0.000023   0.001452  -0.026510   0.390646  -0.026093
    17  H    0.000000   0.000001   0.000028   0.001611  -0.028208   0.389199
    18  H    0.000000   0.000000  -0.000011   0.000000   0.000000   0.000002
    19  H    0.000000   0.000000   0.000001   0.000000   0.000000  -0.000002
               7          8          9         10         11         12
     1  N   -0.000002   0.000017   0.000001   0.000000   0.000000   0.000000
     2  C    0.000935  -0.026460  -0.002590   0.000006   0.000000  -0.000009
     3  C   -0.028530   0.459278  -0.024209   0.000630   0.000040   0.001082
     4  C   -0.011760  -0.027275   0.000619  -0.000005   0.000001   0.000039
     5  C   -0.030609  -0.007754   0.000031   0.000001  -0.000020   0.001294
     6  C    0.486592  -0.034647   0.000884  -0.000026   0.001578  -0.048066
     7  C    4.835298   0.445131  -0.033279  -0.012481  -0.029934   0.447367
     8  C    0.445131   4.809448   0.474226  -0.025091  -0.010331  -0.028564
     9  C   -0.033279   0.474226   4.802843   0.497245  -0.032409  -0.013235
    10  C   -0.012481  -0.025091   0.497245   4.848627   0.489454  -0.029998
    11  C   -0.029934  -0.010331  -0.032409   0.489454   4.886368   0.482609
    12  C    0.447367  -0.028564  -0.013235  -0.029998   0.482609   5.452146
    13  N   -0.000002   0.000034  -0.011978  -0.000423   0.000000   0.000000
    14  C    0.000837  -0.026776   0.429123  -0.035760   0.001031   0.000021
    15  H    0.000044   0.001200  -0.000013   0.000000   0.000000   0.000001
    16  H    0.001504  -0.000004   0.000001   0.000000   0.000000  -0.000031
    17  H   -0.024096   0.001438  -0.000016   0.000000   0.000059  -0.002705
    18  H    0.000104   0.001179  -0.026322   0.380487  -0.026378   0.001845
    19  H    0.002134  -0.000056   0.001364  -0.034136   0.387895  -0.036358
              13         14         15         16         17         18
     1  N   -0.000349  -0.000308   0.000026   0.000000   0.000000   0.000000
     2  C   -0.000239   0.001672  -0.004248  -0.000023   0.000001   0.000000
     3  C    0.000005  -0.002698  -0.024762   0.001452   0.000028  -0.000011
     4  C    0.000000   0.000004   0.390065  -0.026510   0.001611   0.000000
     5  C    0.000000   0.000000  -0.027059   0.390646  -0.028208   0.000000
     6  C    0.000000  -0.000007   0.001601  -0.026093   0.389199   0.000002
     7  C   -0.000002   0.000837   0.000044   0.001504  -0.024096   0.000104
     8  C    0.000034  -0.026776   0.001200  -0.000004   0.001438   0.001179
     9  C   -0.011978   0.429123  -0.000013   0.000001  -0.000016  -0.026322
    10  C   -0.000423  -0.035760   0.000000   0.000000   0.000000   0.380487
    11  C    0.000000   0.001031   0.000000   0.000000   0.000059  -0.026378
    12  C    0.000000   0.000021   0.000001  -0.000031  -0.002705   0.001845
    13  N    6.593408   0.685997   0.000000   0.000000   0.000000   0.000007
    14  C    0.685997   4.903228   0.000000   0.000000   0.000000  -0.004328
    15  H    0.000000   0.000000   0.602334  -0.004075  -0.000043   0.000000
    16  H    0.000000   0.000000  -0.004075   0.615420  -0.004055   0.000000
    17  H    0.000000   0.000000  -0.000043  -0.004055   0.593310   0.000000
    18  H    0.000007  -0.004328   0.000000   0.000000   0.000000   0.626831
    19  H    0.000000  -0.000022   0.000000   0.000000  -0.000006  -0.002967
              19
     1  N    0.000000
     2  C    0.000000
     3  C    0.000001
     4  C    0.000000
     5  C    0.000000
     6  C   -0.000002
     7  C    0.002134
     8  C   -0.000056
     9  C    0.001364
    10  C   -0.034136
    11  C    0.387895
    12  C   -0.036358
    13  N    0.000000
    14  C   -0.000022
    15  H    0.000000
    16  H    0.000000
    17  H   -0.000006
    18  H   -0.002967
    19  H    0.658380
 Mulliken charges:
               1
     1  N   -0.242934
     2  C    0.059358
     3  C   -0.032517
     4  C   -0.080921
     5  C   -0.113504
     6  C   -0.062049
     7  C   -0.049255
     8  C   -0.004994
     9  C   -0.062286
    10  C   -0.078529
    11  C   -0.149962
    12  C   -0.227437
    13  N   -0.266462
    14  C    0.047986
    15  H    0.064929
    16  H    0.051768
    17  H    0.073485
    18  H    0.049550
    19  H    0.023772
 Sum of Mulliken charges =  -1.00000
 Mulliken charges with hydrogens summed into heavy atoms:
               1
     1  N   -0.242934
     2  C    0.059358
     3  C   -0.032517
     4  C   -0.015992
     5  C   -0.061736
     6  C    0.011436
     7  C   -0.049255
     8  C   -0.004994
     9  C   -0.062286
    10  C   -0.028979
    11  C   -0.126190
    12  C   -0.227437
    13  N   -0.266462
    14  C    0.047986
 Electronic spatial extent (au):  <R**2>=           2371.3514
 Charge=             -1.0000 electrons
 Dipole moment (field-independent basis, Debye):
    X=             -2.4771    Y=             -2.5090    Z=             -0.0002  Tot=              3.5258
 Quadrupole moment (field-independent basis, Debye-Ang):
   XX=           -110.4533   YY=            -90.7202   ZZ=            -73.8263
   XY=             14.3206   XZ=              0.0008   YZ=              0.0006
 Traceless Quadrupole moment (field-independent basis, Debye-Ang):
   XX=            -18.7867   YY=              0.9464   ZZ=             17.8403
   XY=             14.3206   XZ=              0.0008   YZ=              0.0006
 Octapole moment (field-independent basis, Debye-Ang**2):
  XXX=            -62.1730  YYY=            -10.6044  ZZZ=              0.0003  XYY=              0.6801
  XXY=            -12.0091  XXZ=             -0.0036  XZZ=              5.6701  YZZ=             -1.6117
  YYZ=              0.0002  XYZ=              0.0038
 Hexadecapole moment (field-independent basis, Debye-Ang**3):
 XXXX=          -1889.8223 YYYY=          -1530.2279 ZZZZ=            -57.9911 XXXY=             78.3464
 XXXZ=              0.0110 YYYX=            114.4934 YYYZ=             -0.0006 ZZZX=              0.0017
 ZZZY=             -0.0018 XXYY=           -613.8950 XXZZ=           -263.5687 YYZZ=           -258.8564
 XXYZ=              0.0071 YYXZ=             -0.0066 ZZXY=             -3.9674
 N-N= 7.242674539024D+02 E-N=-2.771191978285D+03  KE= 5.553323692997D+02
 Calling FoFJK, ICntrl=      2127 FMM=F ISym2X=0 I1Cent= 0 IOpClX= 0 NMat=1 NMatS=1 NMatT=0.
 ***** Axes restored to original set *****
 -------------------------------------------------------------------
 Center     Atomic                   Forces (Hartrees/Bohr)
 Number     Number              X              Y              Z
 -------------------------------------------------------------------
      1        7          -0.105689987    0.015643957    0.000020377
      2        6           0.082000667   -0.014922235   -0.000080384
      3        6          -0.004717608    0.009198027    0.000144074
      4        6          -0.015978751   -0.003361638   -0.000055134
      5        6           0.021011165    0.006841982    0.000049534
      6        6           0.002138072    0.032894179   -0.000091721
      7        6          -0.010448422   -0.023338343    0.000019421
      8        6          -0.015856174    0.007675777   -0.000032468
      9        6          -0.014139418    0.001633603    0.000006428
     10        6           0.000365633   -0.015669194    0.000025616
     11        6          -0.013760399    0.018548682   -0.000061045
     12        6           0.101483850   -0.020719946    0.000039034
     13        7          -0.103505777   -0.026812901   -0.000025594
     14        6           0.087297277    0.029121473   -0.000000072
     15        1          -0.007207207    0.003394294   -0.000008547
     16        1           0.002087276    0.008008868    0.000000127
     17        1           0.006523039   -0.006165115    0.000042211
     18        1          -0.014002765   -0.005716889    0.000013804
     19        1           0.002399530   -0.016254580   -0.000005661
 -------------------------------------------------------------------
 Cartesian Forces:  Max     0.105689987 RMS     0.030664263

 GradGradGradGradGradGradGradGradGradGradGradGradGradGradGradGradGradGrad
 Berny optimization.
 FormGI is forming the generalized inverse of G from B-inverse, IUseBI=4.
 Internal  Forces:  Max     0.106918170 RMS     0.021557628
 Search for a local minimum.
 Step number   1 out of a maximum of  102
 All quantities printed in internal units (Hartrees-Bohrs-Radians)
 Mixed Optimization -- RFO/linear search
 Second derivative matrix not updated -- first step.
 ITU=  0
     Eigenvalues ---    0.01605   0.01605   0.01680   0.01712   0.01768
     Eigenvalues ---    0.01781   0.01868   0.02026   0.02042   0.02101
     Eigenvalues ---    0.02107   0.02183   0.02207   0.02225   0.02257
     Eigenvalues ---    0.02271   0.04867   0.04867   0.16000   0.16000
     Eigenvalues ---    0.16000   0.16000   0.16000   0.22095   0.22419
     Eigenvalues ---    0.23502   0.24446   0.24904   0.25000   0.25000
     Eigenvalues ---    0.25000   0.34749   0.34789   0.34791   0.35114
     Eigenvalues ---    0.35327   0.37344   0.38820   0.38884   0.39741
     Eigenvalues ---    0.40060   0.42409   0.42840   0.45291   0.45741
     Eigenvalues ---    0.46144   0.46379   0.47479   0.47803   1.27825
     Eigenvalues ---    1.27896
 RFO step:  Lambda=-6.49094053D-02 EMin= 1.60499323D-02
 Linear search not attempted -- first point.
 Maximum step size (   0.300) exceeded in Quadratic search.
    -- Step size scaled by   0.810
 Iteration  1 RMS(Cart)=  0.05463939 RMS(Int)=  0.00148149
 Iteration  2 RMS(Cart)=  0.00243124 RMS(Int)=  0.00034679
 Iteration  3 RMS(Cart)=  0.00000133 RMS(Int)=  0.00034679
 Iteration  4 RMS(Cart)=  0.00000000 RMS(Int)=  0.00034679
 Variable       Old X    -DE/DX   Delta X   Delta X   Delta X     New X
                                 (Linear)    (Quad)   (Total)
    R1        2.19179   0.10684   0.00000   0.06438   0.06438   2.25617
    R2        2.71473   0.02366   0.00000   0.04116   0.04116   2.75588
    R3        2.66360   0.00251   0.00000   0.00217   0.00188   2.66548
    R4        2.71320   0.01811   0.00000   0.03073   0.03061   2.74381
    R5        2.62135   0.02985   0.00000   0.04333   0.04315   2.66450
    R6        2.06019   0.00647   0.00000   0.01269   0.01269   2.07289
    R7        2.62191   0.01716   0.00000   0.02617   0.02628   2.64819
    R8        2.05490   0.00797   0.00000   0.01552   0.01552   2.07041
    R9        2.64108   0.03805   0.00000   0.06046   0.06075   2.70183
   R10        2.06085   0.00643   0.00000   0.01262   0.01262   2.07347
   R11        2.69262   0.04771   0.00000   0.08322   0.08330   2.77592
   R12        2.63499   0.06407   0.00000   0.10077   0.10127   2.73626
   R13        2.71924   0.00174   0.00000   0.00122   0.00056   2.71981
   R14        2.66224   0.01209   0.00000   0.01620   0.01569   2.67794
   R15        2.71907   0.01553   0.00000   0.02721   0.02721   2.74628
   R16        2.62111   0.03452   0.00000   0.05002   0.05016   2.67126
   R17        2.06016   0.01094   0.00000   0.02146   0.02146   2.08162
   R18        2.61664   0.03472   0.00000   0.05286   0.05350   2.67014
   R19        2.05148   0.01459   0.00000   0.02826   0.02826   2.07974
   R20        2.19199   0.10692   0.00000   0.06446   0.06446   2.25645
    A1        2.01540   0.00261   0.00000   0.00878   0.00901   2.02442
    A2        2.15081   0.00044   0.00000   0.00321   0.00345   2.15426
    A3        2.11697  -0.00305   0.00000  -0.01199  -0.01246   2.10451
    A4        2.10896   0.00417   0.00000   0.00610   0.00556   2.11452
    A5        2.10066  -0.00687   0.00000  -0.02027  -0.02000   2.08066
    A6        2.07357   0.00270   0.00000   0.01417   0.01444   2.08801
    A7        2.08235   0.00157   0.00000   0.00305   0.00292   2.08527
    A8        2.10335  -0.00307   0.00000  -0.00975  -0.00968   2.09367
    A9        2.09748   0.00150   0.00000   0.00670   0.00676   2.10424
   A10        2.11053   0.00783   0.00000   0.02638   0.02674   2.13727
   A11        2.07190   0.00255   0.00000   0.01007   0.00989   2.08179
   A12        2.10076  -0.01037   0.00000  -0.03645  -0.03663   2.06412
   A13        2.12992  -0.02660   0.00000  -0.06662  -0.06633   2.06359
   A14        2.03437   0.00617   0.00000   0.01034   0.00995   2.04431
   A15        2.11890   0.02042   0.00000   0.05627   0.05639   2.17528
   A16        2.01764   0.01608   0.00000   0.04308   0.04357   2.06121
   A17        2.24265  -0.02099   0.00000  -0.05374  -0.05330   2.18935
   A18        2.02289   0.00491   0.00000   0.01066   0.00973   2.03262
   A19        2.11492  -0.00710   0.00000  -0.02743  -0.02872   2.08620
   A20        2.15826  -0.00234   0.00000  -0.00145  -0.00080   2.15746
   A21        2.01000   0.00944   0.00000   0.02887   0.02952   2.03952
   A22        2.10717   0.00858   0.00000   0.01446   0.01401   2.12118
   A23        2.10152  -0.01506   0.00000  -0.04599  -0.04577   2.05576
   A24        2.07449   0.00647   0.00000   0.03153   0.03176   2.10625
   A25        2.08004   0.02682   0.00000   0.07473   0.07548   2.15552
   A26        2.11195  -0.02116   0.00000  -0.06528  -0.06565   2.04630
   A27        2.09120  -0.00566   0.00000  -0.00946  -0.00983   2.08137
   A28        2.12245  -0.05363   0.00000  -0.12871  -0.12689   1.99556
   A29        3.19366   0.00154   0.00000   0.01542   0.01542   3.20908
   A30        3.20500   0.00230   0.00000   0.01641   0.01641   3.22141
   A31        3.14118   0.00006   0.00000   0.00057   0.00057   3.14175
   A32        3.14123   0.00004   0.00000   0.00030   0.00030   3.14153
    D1        3.14099   0.00001   0.00000   0.00018   0.00018   3.14117
    D2       -0.00090   0.00002   0.00000   0.00024   0.00024  -0.00066
    D3        0.00093  -0.00003   0.00000  -0.00024  -0.00024   0.00069
    D4       -3.14096  -0.00002   0.00000  -0.00018  -0.00018  -3.14113
    D5       -3.14086  -0.00003   0.00000  -0.00029  -0.00029  -3.14115
    D6        0.00098  -0.00004   0.00000  -0.00032  -0.00032   0.00066
    D7       -0.00093   0.00001   0.00000   0.00016   0.00016  -0.00077
    D8        3.14091   0.00001   0.00000   0.00014   0.00014   3.14105
    D9       -0.00067   0.00002   0.00000   0.00020   0.00020  -0.00047
   D10        3.14119   0.00001   0.00000   0.00010   0.00011   3.14130
   D11        3.14122   0.00001   0.00000   0.00014   0.00014   3.14136
   D12       -0.00011   0.00000   0.00000   0.00005   0.00005  -0.00006
   D13        0.00045  -0.00001   0.00000  -0.00010  -0.00010   0.00035
   D14        3.14084   0.00001   0.00000   0.00012   0.00012   3.14096
   D15       -3.14140   0.00000   0.00000  -0.00002  -0.00002  -3.14142
   D16       -0.00102   0.00002   0.00000   0.00020   0.00021  -0.00081
   D17       -0.00051   0.00001   0.00000   0.00007   0.00007  -0.00044
   D18        3.14131  -0.00001   0.00000  -0.00005  -0.00004   3.14127
   D19       -3.14088  -0.00002   0.00000  -0.00018  -0.00018  -3.14106
   D20        0.00094  -0.00004   0.00000  -0.00030  -0.00029   0.00065
   D21        0.00072  -0.00001   0.00000  -0.00009  -0.00009   0.00063
   D22       -3.14108  -0.00001   0.00000  -0.00008  -0.00008  -3.14116
   D23       -3.14111   0.00001   0.00000   0.00002   0.00002  -3.14109
   D24        0.00027   0.00000   0.00000   0.00003   0.00003   0.00031
   D25        3.14104   0.00002   0.00000   0.00019   0.00019   3.14123
   D26       -0.00033   0.00001   0.00000   0.00009   0.00009  -0.00024
   D27        3.14121   0.00001   0.00000   0.00002   0.00002   3.14123
   D28       -0.00045   0.00000   0.00000   0.00003   0.00003  -0.00042
   D29       -0.00014   0.00000   0.00000  -0.00001  -0.00001  -0.00015
   D30        3.14138   0.00000   0.00000   0.00000   0.00000   3.14139
   D31        0.00005  -0.00001   0.00000  -0.00011  -0.00010  -0.00005
   D32       -3.14157  -0.00001   0.00000  -0.00007  -0.00006   3.14155
   D33       -3.14148  -0.00001   0.00000  -0.00011  -0.00011  -3.14159
   D34        0.00008  -0.00001   0.00000  -0.00007  -0.00007   0.00001
   D35       -0.00009   0.00002   0.00000   0.00020   0.00021   0.00012
   D36       -3.14126   0.00000   0.00000   0.00000   0.00001  -3.14125
   D37        3.14153   0.00002   0.00000   0.00016   0.00017  -3.14148
   D38        0.00037  -0.00001   0.00000  -0.00004  -0.00003   0.00033
   D39        0.00023  -0.00002   0.00000  -0.00021  -0.00020   0.00003
   D40        3.14140  -0.00001   0.00000  -0.00003  -0.00001   3.14139
         Item               Value     Threshold  Converged?
 Maximum Force            0.106918     0.000450     NO 
 RMS     Force            0.021558     0.000300     NO 
 Maximum Displacement     0.287943     0.001800     NO 
 RMS     Displacement     0.053854     0.001200     NO 
 Predicted change in Energy=-3.417623D-02
 GradGradGradGradGradGradGradGradGradGradGradGradGradGradGradGradGradGrad

                          Input orientation:                          
 ---------------------------------------------------------------------
 Center     Atomic      Atomic             Coordinates (Angstroms)
 Number     Number       Type             X           Y           Z
 ---------------------------------------------------------------------
      1          7           0        0.933224    0.164856   -0.003642
      2          6           0        2.116288    0.004280   -0.003928
      3          6           0        3.571325   -0.093961   -0.004052
      4          6           0        4.273448    1.129381   -0.003206
      5          6           0        5.683076    1.161362   -0.002723
      6          6           0        6.400150   -0.042643   -0.002515
      7          6           0        5.756260   -1.319191   -0.003197
      8          6           0        4.287791   -1.356844   -0.003581
      9          6           0        3.679717   -2.661341   -0.003712
     10          6           0        4.502177   -3.815353   -0.003650
     11          6           0        5.912404   -3.718154   -0.003525
     12          6           0        6.609463   -2.489083   -0.003313
     13          7           0        1.080329   -3.151763   -0.004019
     14          6           0        2.242868   -2.879199   -0.003834
     15          1           0        3.709581    2.070282   -0.003145
     16          1           0        6.208525    2.122754   -0.002345
     17          1           0        7.497006   -0.013935   -0.002743
     18          1           0        4.006605   -4.799127   -0.003712
     19          1           0        6.482305   -4.659653   -0.003818
 ---------------------------------------------------------------------
                    Distance matrix (angstroms):
                    1          2          3          4          5
     1  N    0.000000
     2  C    1.193911   0.000000
     3  C    2.650767   1.458350   0.000000
     4  C    3.476695   2.432939   1.410512   0.000000
     5  C    4.853259   3.749776   2.456691   1.409991   0.000000
     6  C    5.470862   4.284119   2.829290   2.428271   1.401364
     7  C    5.046194   3.873109   2.505021   2.862558   2.481632
     8  C    3.683570   2.562828   1.451963   2.486266   2.878920
     9  C    3.940890   3.090283   2.569667   3.836938   4.315844
    10  C    5.345979   4.503561   3.836045   4.950021   5.114901
    11  C    6.314269   5.316673   4.314559   5.117106   4.884902
    12  C    6.266026   5.138627   3.868707   4.307000   3.766157
    13  N    3.319880   3.321720   3.944010   5.340806   6.307800
    14  C    3.313826   2.886257   3.085831   4.493548   5.306710
    15  H    3.367315   2.609013   2.168655   1.096924   2.172745
    16  H    5.626915   4.608073   3.445091   2.175158   1.095615
    17  H    6.566217   5.380749   3.926497   3.420306   2.161403
    18  H    5.838390   5.161978   4.725257   5.934510   6.191767
    19  H    7.353108   6.388614   5.414734   6.196125   5.875626
                    6          7          8          9         10
     6  C    0.000000
     7  C    1.429745   0.000000
     8  C    2.487807   1.468952   0.000000
     9  C    3.776022   2.472529   1.439260   0.000000
    10  C    4.223226   2.793483   2.467839   1.417104   0.000000
    11  C    3.707732   2.404039   2.866209   2.470171   1.413572
    12  C    2.455379   1.447965   2.583046   2.934806   2.489908
    13  N    6.161747   5.022216   3.675534   2.645247   3.485599
    14  C    5.032797   3.844158   2.549368   1.453271   2.445580
    15  H    3.421054   3.959473   3.475560   4.731718   5.938763
    16  H    2.173859   3.471532   3.974522   5.411326   6.178409
    17  H    1.097232   2.175751   3.478860   4.645478   4.839399
    18  H    5.324772   3.895028   3.453748   2.162633   1.101546
    19  H    4.617741   3.418454   3.965406   3.442057   2.152615
                   11         12         13         14         15
    11  C    0.000000
    12  C    1.412977   0.000000
    13  N    4.865157   5.568705   0.000000
    14  C    3.764218   4.383987   1.194064   0.000000
    15  H    6.193418   5.403437   5.846600   5.162230   0.000000
    16  H    5.848410   4.629233   7.356557   6.383258   2.499495
    17  H    4.028921   2.629467   7.142809   5.984623   4.323026
    18  H    2.191021   3.480110   3.358110   2.607085   6.875828
    19  H    1.100549   2.174291   5.608483   4.598135   7.278738
                   16         17         18         19
    16  H    0.000000
    17  H    2.495120   0.000000
    18  H    7.263669   5.922919   0.000000
    19  H    6.787931   4.755241   2.479626   0.000000
 Stoichiometry    C12H5N2(1-)
 Framework group  C1[X(C12H5N2)]
 Deg. of freedom    51
 Full point group                 C1      NOp   1
 Largest Abelian subgroup         C1      NOp   1
 Largest concise Abelian subgroup C1      NOp   1
                         Standard orientation:                         
 ---------------------------------------------------------------------
 Center     Atomic      Atomic             Coordinates (Angstroms)
 Number     Number       Type             X           Y           Z
 ---------------------------------------------------------------------
      1          7           0        2.955866   -1.875705    0.000199
      2          6           0        1.800101   -1.576319   -0.000269
      3          6           0        0.366899   -1.306659   -0.000630
      4          6           0       -0.474997   -2.438364   -0.000047
      5          6           0       -1.878512   -2.303384    0.000192
      6          6           0       -2.448137   -1.023013    0.000420
      7          6           0       -1.657772    0.168412   -0.000003
      8          6           0       -0.195158    0.032104   -0.000132
      9          6           0        0.562948    1.255518   -0.000006
     10          6           0       -0.117237    2.498712    0.000051
     11          6           0       -1.529061    2.569002   -0.000075
     12          6           0       -2.366606    1.431011   -0.000126
     13          7           0        3.202097    1.435031    0.000187
     14          6           0        2.015479    1.301891    0.000142
     15          1           0       -0.026381   -3.439356   -0.000002
     16          1           0       -2.513989   -3.195875    0.000367
     17          1           0       -3.540689   -0.921779    0.000002
     18          1           0        0.491220    3.416962    0.000190
     19          1           0       -1.983598    3.571302   -0.000355
 ---------------------------------------------------------------------
 Rotational constants (GHZ):      0.9331891      0.8045885      0.4320652
 Standard basis: STO-3G (5D, 7F)
 There are    75 symmetry adapted cartesian basis functions of A   symmetry.
 There are    75 symmetry adapted basis functions of A   symmetry.
    75 basis functions,   225 primitive gaussians,    75 cartesian basis functions
    46 alpha electrons       46 beta electrons
       nuclear repulsion energy       714.9935716040 Hartrees.
 NAtoms=   19 NActive=   19 NUniq=   19 SFac= 1.00D+00 NAtFMM=   60 NAOKFM=F Big=F
 Integral buffers will be    131072 words long.
 Raffenetti 2 integral format.
 Two-electron integral symmetry is turned on.
 One-electron integrals computed using PRISM.
 NBasis=    75 RedAO= T EigKep=  1.72D-01  NBF=    75
 NBsUse=    75 1.00D-06 EigRej= -1.00D+00 NBFU=    75
 Initial guess from the checkpoint file:  "/tmp/bnp.472678.sequoia/Gau-26573.chk"
 B after Tr=     0.000000    0.000000    0.000000
         Rot=    0.993988   -0.000001    0.000000   -0.109490 Ang= -12.57 deg.
 ExpMin= 1.69D-01 ExpMax= 9.91D+01 ExpMxC= 9.91D+01 IAcc=1 IRadAn=         1 AccDes= 0.00D+00
 Harris functional with IExCor=  402 and IRadAn=       1 diagonalized for initial guess.
 HarFok:  IExCor=  402 AccDes= 0.00D+00 IRadAn=         1 IDoV= 1 UseB2=F ITyADJ=14
 ICtDFT=  3500011 ScaDFX=  1.000000  1.000000  1.000000  1.000000
 FoFCou: FMM=F IPFlag=           0 FMFlag=      100000 FMFlg1=           0
         NFxFlg=           0 DoJE=T BraDBF=F KetDBF=T FulRan=T
         wScrn=  0.000000 ICntrl=     500 IOpCl=  0 I1Cent=   200000004 NGrid=           0
         NMat0=    1 NMatS0=      1 NMatT0=    0 NMatD0=    1 NMtDS0=    0 NMtDT0=    0
 Petite list used in FoFCou.
 Keep R1 ints in memory in canonical form, NReq=4993994.
 Requested convergence on RMS density matrix=1.00D-08 within 128 cycles.
 Requested convergence on MAX density matrix=1.00D-06.
 Requested convergence on             energy=1.00D-06.
 No special actions if energy rises.
 Integral accuracy reduced to 1.0D-05 until final iterations.
 Initial convergence to 1.0D-05 achieved.  Increase integral accuracy.
 SCF Done:  E(RB3LYP) =  -562.505920520     A.U. after   18 cycles
            NFock= 18  Conv=0.76D-08     -V/T= 2.0139
 Calling FoFJK, ICntrl=      2127 FMM=F ISym2X=0 I1Cent= 0 IOpClX= 0 NMat=1 NMatS=1 NMatT=0.
 ***** Axes restored to original set *****
 -------------------------------------------------------------------
 Center     Atomic                   Forces (Hartrees/Bohr)
 Number     Number              X              Y              Z
 -------------------------------------------------------------------
      1        7          -0.015340119    0.003570166   -0.000000146
      2        6           0.010657735   -0.003541563   -0.000021039
      3        6           0.000097210    0.002881275    0.000097533
      4        6          -0.003031604   -0.001014432   -0.000040260
      5        6           0.007730073   -0.003947905    0.000038289
      6        6          -0.007585873    0.012525598   -0.000090853
      7        6          -0.015075986   -0.005352638    0.000025233
      8        6           0.004198182    0.007397178   -0.000033481
      9        6          -0.006587699   -0.003103891    0.000000497
     10        6           0.006260840   -0.006452787    0.000012494
     11        6          -0.016989441    0.006548859   -0.000028286
     12        6           0.042114134   -0.005144465    0.000014068
     13        7          -0.015413667   -0.004822345    0.000001432
     14        6           0.012714834    0.004899969   -0.000010577
     15        1          -0.001624296    0.000558921   -0.000006358
     16        1          -0.000211182    0.001581840    0.000000379
     17        1           0.002108368   -0.002582228    0.000034452
     18        1          -0.002587657   -0.000002748    0.000002482
     19        1          -0.001433850   -0.003998802    0.000004138
 -------------------------------------------------------------------
 Cartesian Forces:  Max     0.042114134 RMS     0.008126344

 GradGradGradGradGradGradGradGradGradGradGradGradGradGradGradGradGradGrad
 Berny optimization.
 Using GEDIIS/GDIIS optimizer.
 FormGI is forming the generalized inverse of G from B-inverse, IUseBI=4.
 Internal  Forces:  Max     0.022004686 RMS     0.005125648
 Search for a local minimum.
 Step number   2 out of a maximum of  102
 All quantities printed in internal units (Hartrees-Bohrs-Radians)
 Mixed Optimization -- RFO/linear search
 Update second derivatives using D2CorX and points    1    2
 DE= -3.24D-02 DEPred=-3.42D-02 R= 9.48D-01
 TightC=F SS=  1.41D+00  RLast= 3.00D-01 DXNew= 5.0454D-01 8.9984D-01
 Trust test= 9.48D-01 RLast= 3.00D-01 DXMaxT set to 5.05D-01
 ITU=  1  0
 Use linear search instead of GDIIS.
     Eigenvalues ---    0.01602   0.01605   0.01685   0.01713   0.01768
     Eigenvalues ---    0.01783   0.01871   0.02027   0.02039   0.02104
     Eigenvalues ---    0.02113   0.02185   0.02207   0.02227   0.02257
     Eigenvalues ---    0.02271   0.04862   0.04867   0.15955   0.16000
     Eigenvalues ---    0.16000   0.16000   0.16136   0.21763   0.22143
     Eigenvalues ---    0.23085   0.23792   0.24851   0.24996   0.25000
     Eigenvalues ---    0.25576   0.34742   0.34788   0.34845   0.35132
     Eigenvalues ---    0.35391   0.37392   0.38877   0.39261   0.39800
     Eigenvalues ---    0.40196   0.42485   0.42563   0.44607   0.45473
     Eigenvalues ---    0.46115   0.47374   0.47450   0.50795   1.27858
     Eigenvalues ---    1.33711
 RFO step:  Lambda=-4.37824101D-03 EMin= 1.60198148D-02
 Quartic linear search produced a step of  0.37829.
 Iteration  1 RMS(Cart)=  0.05302750 RMS(Int)=  0.00510828
 Iteration  2 RMS(Cart)=  0.00713281 RMS(Int)=  0.00033308
 Iteration  3 RMS(Cart)=  0.00011913 RMS(Int)=  0.00032199
 Iteration  4 RMS(Cart)=  0.00000003 RMS(Int)=  0.00032199
 Variable       Old X    -DE/DX   Delta X   Delta X   Delta X     New X
                                 (Linear)    (Quad)   (Total)
    R1        2.25617   0.01568   0.02435  -0.01014   0.01422   2.27038
    R2        2.75588   0.00467   0.01557  -0.00212   0.01345   2.76933
    R3        2.66548  -0.00134   0.00071  -0.00523  -0.00470   2.66079
    R4        2.74381   0.00397   0.01158   0.00057   0.01206   2.75587
    R5        2.66450   0.00412   0.01632  -0.00762   0.00860   2.67310
    R6        2.07289   0.00131   0.00480  -0.00047   0.00433   2.07722
    R7        2.64819  -0.00309   0.00994  -0.02063  -0.01060   2.63759
    R8        2.07041   0.00129   0.00587  -0.00186   0.00401   2.07442
    R9        2.70183   0.00653   0.02298  -0.00677   0.01639   2.71822
   R10        2.07347   0.00204   0.00477   0.00242   0.00719   2.08066
   R11        2.77592   0.00577   0.03151  -0.01488   0.01661   2.79253
   R12        2.73626   0.02198   0.03831   0.02266   0.06141   2.79766
   R13        2.71981   0.00371   0.00021   0.01173   0.01131   2.73112
   R14        2.67794   0.00141   0.00594  -0.00477   0.00071   2.67864
   R15        2.74628   0.00266   0.01029  -0.00279   0.00751   2.75379
   R16        2.67126   0.00109   0.01897  -0.02010  -0.00097   2.67029
   R17        2.08162   0.00117   0.00812  -0.00490   0.00322   2.08484
   R18        2.67014   0.01389   0.02024   0.01669   0.03753   2.70767
   R19        2.07974   0.00268   0.01069  -0.00215   0.00854   2.08828
   R20        2.25645   0.01611   0.02439  -0.00970   0.01468   2.27114
    A1        2.02442  -0.00098   0.00341  -0.00968  -0.00610   2.01832
    A2        2.15426   0.00160   0.00130   0.00679   0.00826   2.16252
    A3        2.10451  -0.00063  -0.00471   0.00288  -0.00216   2.10234
    A4        2.11452  -0.00021   0.00210  -0.00555  -0.00379   2.11073
    A5        2.08066  -0.00103  -0.00757   0.00143  -0.00596   2.07470
    A6        2.08801   0.00125   0.00546   0.00412   0.00975   2.09776
    A7        2.08527  -0.00005   0.00111  -0.00397  -0.00293   2.08234
    A8        2.09367  -0.00095  -0.00366  -0.00222  -0.00585   2.08782
    A9        2.10424   0.00099   0.00256   0.00619   0.00878   2.11303
   A10        2.13727   0.00486   0.01012   0.01695   0.02728   2.16455
   A11        2.08179   0.00031   0.00374   0.00337   0.00700   2.08879
   A12        2.06412  -0.00517  -0.01386  -0.02032  -0.03428   2.02984
   A13        2.06359  -0.00758  -0.02509  -0.01207  -0.03706   2.02653
   A14        2.04431  -0.00242   0.00376  -0.02112  -0.01762   2.02669
   A15        2.17528   0.01001   0.02133   0.03320   0.05468   2.22996
   A16        2.06121   0.00362   0.01648   0.00177   0.01867   2.07988
   A17        2.18935  -0.00404  -0.02016   0.00079  -0.01889   2.17046
   A18        2.03262   0.00042   0.00368  -0.00255   0.00022   2.03284
   A19        2.08620  -0.00360  -0.01086  -0.01272  -0.02485   2.06136
   A20        2.15746   0.00244  -0.00030   0.01672   0.01705   2.17451
   A21        2.03952   0.00115   0.01117  -0.00400   0.00780   2.04731
   A22        2.12118   0.00270   0.00530   0.00081   0.00567   2.12685
   A23        2.05576  -0.00376  -0.01731  -0.00211  -0.01920   2.03655
   A24        2.10625   0.00106   0.01201   0.00130   0.01353   2.11978
   A25        2.15552   0.01247   0.02855   0.03791   0.06716   2.22268
   A26        2.04630  -0.00967  -0.02484  -0.03442  -0.05960   1.98669
   A27        2.08137  -0.00280  -0.00372  -0.00349  -0.00756   2.07381
   A28        1.99556  -0.02200  -0.04800  -0.05665  -0.10289   1.89267
   A29        3.20908   0.00334   0.00583   0.21051   0.21634   3.42542
   A30        3.22141   0.00264   0.00621   0.05840   0.06461   3.28603
   A31        3.14175  -0.00001   0.00021  -0.00115  -0.00094   3.14081
   A32        3.14153   0.00001   0.00011   0.00006   0.00017   3.14170
    D1        3.14117   0.00001   0.00007   0.00050   0.00057  -3.14145
    D2       -0.00066   0.00002   0.00009   0.00077   0.00086   0.00020
    D3        0.00069  -0.00002  -0.00009  -0.00089  -0.00098  -0.00029
    D4       -3.14113  -0.00001  -0.00007  -0.00062  -0.00069   3.14136
    D5       -3.14115  -0.00002  -0.00011  -0.00065  -0.00077   3.14126
    D6        0.00066  -0.00002  -0.00012  -0.00088  -0.00100  -0.00034
    D7       -0.00077   0.00001   0.00006   0.00083   0.00091   0.00014
    D8        3.14105   0.00001   0.00005   0.00061   0.00067  -3.14146
    D9       -0.00047   0.00002   0.00007   0.00066   0.00073   0.00026
   D10        3.14130   0.00001   0.00004   0.00045   0.00050  -3.14139
   D11        3.14136   0.00001   0.00005   0.00039   0.00044  -3.14139
   D12       -0.00006   0.00000   0.00002   0.00018   0.00020   0.00014
   D13        0.00035  -0.00001  -0.00004  -0.00041  -0.00045  -0.00010
   D14        3.14096   0.00001   0.00005   0.00057   0.00063   3.14159
   D15       -3.14142   0.00000  -0.00001  -0.00020  -0.00021   3.14155
   D16       -0.00081   0.00002   0.00008   0.00078   0.00087   0.00006
   D17       -0.00044   0.00001   0.00003   0.00038   0.00040  -0.00004
   D18        3.14127   0.00000  -0.00002   0.00014   0.00014   3.14140
   D19       -3.14106  -0.00002  -0.00007  -0.00060  -0.00066   3.14146
   D20        0.00065  -0.00002  -0.00011  -0.00084  -0.00093  -0.00028
   D21        0.00063  -0.00001  -0.00004  -0.00058  -0.00061   0.00002
   D22       -3.14116  -0.00001  -0.00003  -0.00037  -0.00040  -3.14156
   D23       -3.14109   0.00000   0.00001  -0.00033  -0.00032  -3.14140
   D24        0.00031   0.00000   0.00001  -0.00012  -0.00011   0.00020
   D25        3.14123   0.00001   0.00007   0.00038   0.00044  -3.14152
   D26       -0.00024   0.00000   0.00003   0.00013   0.00015  -0.00010
   D27        3.14123   0.00001   0.00001   0.00035   0.00034   3.14157
   D28       -0.00042   0.00001   0.00001   0.00031   0.00032  -0.00010
   D29       -0.00015   0.00000   0.00000   0.00012   0.00011  -0.00003
   D30        3.14139   0.00000   0.00000   0.00009   0.00009   3.14148
   D31       -0.00005   0.00000  -0.00004  -0.00013  -0.00017  -0.00022
   D32        3.14155   0.00000  -0.00002  -0.00009  -0.00011   3.14144
   D33       -3.14159   0.00000  -0.00004  -0.00010  -0.00015   3.14145
   D34        0.00001   0.00000  -0.00003  -0.00006  -0.00009  -0.00007
   D35        0.00012   0.00001   0.00008   0.00015   0.00024   0.00036
   D36       -3.14125   0.00000   0.00000  -0.00016  -0.00014  -3.14139
   D37       -3.14148   0.00000   0.00006   0.00011   0.00018  -3.14131
   D38        0.00033   0.00000  -0.00001  -0.00020  -0.00020   0.00013
   D39        0.00003  -0.00001  -0.00008  -0.00014  -0.00021  -0.00018
   D40        3.14139   0.00000  -0.00001   0.00017   0.00018   3.14157
         Item               Value     Threshold  Converged?
 Maximum Force            0.022005     0.000450     NO 
 RMS     Force            0.005126     0.000300     NO 
 Maximum Displacement     0.443373     0.001800     NO 
 RMS     Displacement     0.057393     0.001200     NO 
 Predicted change in Energy=-4.212283D-03
 GradGradGradGradGradGradGradGradGradGradGradGradGradGradGradGradGradGrad

                          Input orientation:                          
 ---------------------------------------------------------------------
 Center     Atomic      Atomic             Coordinates (Angstroms)
 Number     Number       Type             X           Y           Z
 ---------------------------------------------------------------------
      1          7           0        0.971432    0.399479   -0.005117
      2          6           0        2.100393   -0.011484   -0.003695
      3          6           0        3.562739   -0.107081   -0.003153
      4          6           0        4.253542    1.119839   -0.003037
      5          6           0        5.667565    1.158212   -0.002706
      6          6           0        6.383582   -0.039889   -0.002814
      7          6           0        5.773027   -1.342298   -0.003129
      8          6           0        4.295507   -1.367960   -0.003293
      9          6           0        3.673806   -2.672654   -0.003571
     10          6           0        4.515253   -3.813359   -0.003707
     11          6           0        5.923848   -3.701140   -0.003839
     12          6           0        6.699932   -2.496684   -0.003451
     13          7           0        1.088035   -3.262582   -0.003469
     14          6           0        2.234952   -2.903434   -0.003626
     15          1           0        3.675166    2.054588   -0.003153
     16          1           0        6.184084    2.126838   -0.002428
     17          1           0        7.484386   -0.017125   -0.002562
     18          1           0        4.016113   -4.797237   -0.003773
     19          1           0        6.449178   -4.673359   -0.004139
 ---------------------------------------------------------------------
                    Distance matrix (angstroms):
                    1          2          3          4          5
     1  N    0.000000
     2  C    1.201434   0.000000
     3  C    2.640355   1.465467   0.000000
     4  C    3.360234   2.432272   1.408028   0.000000
     5  C    4.757031   3.754052   2.455862   1.414543   0.000000
     6  C    5.429956   4.283284   2.821644   2.425292   1.395753
     7  C    5.107749   3.906316   2.532022   2.893260   2.502733
     8  C    3.764747   2.580418   1.458344   2.488153   2.874733
     9  C    4.091555   3.091513   2.567976   3.836548   4.318635
    10  C    5.505150   4.503977   3.826720   4.940136   5.103366
    11  C    6.429735   5.313414   4.300244   5.102133   4.866105
    12  C    6.418993   5.228000   3.943626   4.366241   3.797900
    13  N    3.663917   3.405070   4.010155   5.406112   6.365180
    14  C    3.536342   2.895078   3.095579   4.501270   5.317876
    15  H    3.170105   2.597800   2.164590   1.099215   2.184753
    16  H    5.491403   4.609659   3.444102   2.177392   1.097738
    17  H    6.526265   5.383996   3.922679   3.425060   2.163852
    18  H    6.022951   5.154941   4.712018   5.921838   6.180183
    19  H    7.465881   6.375344   5.402076   6.195317   5.883718
                    6          7          8          9         10
     6  C    0.000000
     7  C    1.438418   0.000000
     8  C    2.474637   1.477742   0.000000
     9  C    3.778139   2.485272   1.445247   0.000000
    10  C    4.210669   2.772749   2.455253   1.417478   0.000000
    11  C    3.690002   2.363659   2.845210   2.473959   1.413058
    12  C    2.477078   1.480460   2.656177   3.031238   2.550776
    13  N    6.199078   5.063264   3.725248   2.652212   3.471193
    14  C    5.040935   3.867185   2.569741   1.457244   2.455146
    15  H    3.423792   3.992474   3.478313   4.727242   5.927778
    16  H    2.175892   3.493404   3.972447   5.416329   6.170165
    17  H    1.101039   2.164448   3.463192   4.644605   4.819455
    18  H    5.313875   3.875997   3.440639   2.151982   1.103248
    19  H    4.633934   3.398992   3.945118   3.421332   2.116522
                   11         12         13         14         15
    11  C    0.000000
    12  C    1.432837   0.000000
    13  N    4.855659   5.663920   0.000000
    14  C    3.774161   4.483469   1.201834   0.000000
    15  H    6.179399   5.464731   5.913167   5.162964   0.000000
    16  H    5.833785   4.652209   7.417247   6.395254   2.509958
    17  H    4.000905   2.600688   7.172607   5.990604   4.336145
    18  H    2.200200   3.534887   3.305875   2.599813   6.860302
    19  H    1.105071   2.191071   5.543658   4.570814   7.277390
                   16         17         18         19
    16  H    0.000000
    17  H    2.507462   0.000000
    18  H    7.255543   5.905792   0.000000
    19  H    6.805362   4.769923   2.436216   0.000000
 Stoichiometry    C12H5N2(1-)
 Framework group  C1[X(C12H5N2)]
 Deg. of freedom    51
 Full point group                 C1      NOp   1
 Largest Abelian subgroup         C1      NOp   1
 Largest concise Abelian subgroup C1      NOp   1
                         Standard orientation:                         
 ---------------------------------------------------------------------
 Center     Atomic      Atomic             Coordinates (Angstroms)
 Number     Number       Type             X           Y           Z
 ---------------------------------------------------------------------
      1          7           0        3.152091   -1.694354   -0.001210
      2          6           0        2.016682   -1.301556    0.000040
      3          6           0        0.552991   -1.229432    0.000323
      4          6           0       -0.118040   -2.467277    0.000219
      5          6           0       -1.531265   -2.528330    0.000289
      6          6           0       -2.266412   -1.341870    0.000144
      7          6           0       -1.676829   -0.029834    0.000042
      8          6           0       -0.199912    0.019529    0.000148
      9          6           0        0.400779    1.334029    0.000084
     10          6           0       -0.458861    2.461088   -0.000116
     11          6           0       -1.865474    2.326285   -0.000512
     12          6           0       -2.622135    1.109533   -0.000359
     13          7           0        2.976753    1.965364    0.000702
     14          6           0        1.835745    1.587863    0.000308
     15          1           0        0.475258   -3.392626    0.000135
     16          1           0       -2.032178   -3.505118    0.000399
     17          1           0       -3.366708   -1.382291    0.000195
     18          1           0        0.024430    3.452847   -0.000015
     19          1           0       -2.406333    3.289951   -0.000832
 ---------------------------------------------------------------------
 Rotational constants (GHZ):      0.9075086      0.8016303      0.4256450
 Standard basis: STO-3G (5D, 7F)
 There are    75 symmetry adapted cartesian basis functions of A   symmetry.
 There are    75 symmetry adapted basis functions of A   symmetry.
    75 basis functions,   225 primitive gaussians,    75 cartesian basis functions
    46 alpha electrons       46 beta electrons
       nuclear repulsion energy       710.9462268664 Hartrees.
 NAtoms=   19 NActive=   19 NUniq=   19 SFac= 1.00D+00 NAtFMM=   60 NAOKFM=F Big=F
 Integral buffers will be    131072 words long.
 Raffenetti 2 integral format.
 Two-electron integral symmetry is turned on.
 One-electron integrals computed using PRISM.
 NBasis=    75 RedAO= T EigKep=  1.77D-01  NBF=    75
 NBsUse=    75 1.00D-06 EigRej= -1.00D+00 NBFU=    75
 Initial guess from the checkpoint file:  "/tmp/bnp.472678.sequoia/Gau-26573.chk"
 B after Tr=     0.000000    0.000000    0.000000
         Rot=    0.997789    0.000004   -0.000001   -0.066465 Ang=   7.62 deg.
 ExpMin= 1.69D-01 ExpMax= 9.91D+01 ExpMxC= 9.91D+01 IAcc=1 IRadAn=         1 AccDes= 0.00D+00
 Harris functional with IExCor=  402 and IRadAn=       1 diagonalized for initial guess.
 HarFok:  IExCor=  402 AccDes= 0.00D+00 IRadAn=         1 IDoV= 1 UseB2=F ITyADJ=14
 ICtDFT=  3500011 ScaDFX=  1.000000  1.000000  1.000000  1.000000
 FoFCou: FMM=F IPFlag=           0 FMFlag=      100000 FMFlg1=           0
         NFxFlg=           0 DoJE=T BraDBF=F KetDBF=T FulRan=T
         wScrn=  0.000000 ICntrl=     500 IOpCl=  0 I1Cent=   200000004 NGrid=           0
         NMat0=    1 NMatS0=      1 NMatT0=    0 NMatD0=    1 NMtDS0=    0 NMtDT0=    0
 Petite list used in FoFCou.
 Keep R1 ints in memory in canonical form, NReq=4993994.
 Requested convergence on RMS density matrix=1.00D-08 within 128 cycles.
 Requested convergence on MAX density matrix=1.00D-06.
 Requested convergence on             energy=1.00D-06.
 No special actions if energy rises.
 Integral accuracy reduced to 1.0D-05 until final iterations.
 Initial convergence to 1.0D-05 achieved.  Increase integral accuracy.
 SCF Done:  E(RB3LYP) =  -562.508135287     A.U. after   16 cycles
            NFock= 16  Conv=0.55D-08     -V/T= 2.0140
 Calling FoFJK, ICntrl=      2127 FMM=F ISym2X=0 I1Cent= 0 IOpClX= 0 NMat=1 NMatS=1 NMatT=0.
 ***** Axes restored to original set *****
 -------------------------------------------------------------------
 Center     Atomic                   Forces (Hartrees/Bohr)
 Number     Number              X              Y              Z
 -------------------------------------------------------------------
      1        7          -0.004162983   -0.007190101    0.000030768
      2        6           0.003323635    0.011769134   -0.000055387
      3        6           0.003030353   -0.009671069   -0.000007166
      4        6          -0.002864542    0.001860329    0.000017869
      5        6           0.001608036   -0.000367359   -0.000008583
      6        6           0.001463610    0.000725091    0.000019765
      7        6          -0.009072240    0.006891661   -0.000012626
      8        6           0.004460915    0.000544610    0.000007567
      9        6          -0.002661773    0.002905483    0.000006631
     10        6           0.000189737    0.000425297   -0.000011697
     11        6          -0.002599223   -0.006212906    0.000012885
     12        6           0.003636316   -0.002430956   -0.000003111
     13        7          -0.000279111    0.002556544   -0.000007271
     14        6           0.001631591   -0.001310567    0.000017565
     15        1           0.000404526   -0.000329182    0.000006075
     16        1          -0.000354268   -0.000429406   -0.000004695
     17        1          -0.000396733    0.000063125   -0.000004629
     18        1           0.001767625    0.000011574   -0.000005079
     19        1           0.000874528    0.000188700    0.000001118
 -------------------------------------------------------------------
 Cartesian Forces:  Max     0.011769134 RMS     0.003201566

 GradGradGradGradGradGradGradGradGradGradGradGradGradGradGradGradGradGrad
 Berny optimization.
 Using GEDIIS/GDIIS optimizer.
 FormGI is forming the generalized inverse of G from B-inverse, IUseBI=4.
 Internal  Forces:  Max     0.018582596 RMS     0.002672974
 Search for a local minimum.
 Step number   3 out of a maximum of  102
 All quantities printed in internal units (Hartrees-Bohrs-Radians)
 Mixed Optimization -- RFO/linear search
 Update second derivatives using D2CorX and points    1    2    3
 DE= -2.21D-03 DEPred=-4.21D-03 R= 5.26D-01
 TightC=F SS=  1.41D+00  RLast= 2.93D-01 DXNew= 8.4853D-01 8.7980D-01
 Trust test= 5.26D-01 RLast= 2.93D-01 DXMaxT set to 8.49D-01
 ITU=  1  1  0
 Use linear search instead of GDIIS.
     Eigenvalues ---    0.01605   0.01686   0.01715   0.01766   0.01782
     Eigenvalues ---    0.01868   0.02022   0.02040   0.02106   0.02115
     Eigenvalues ---    0.02187   0.02207   0.02230   0.02257   0.02271
     Eigenvalues ---    0.02452   0.04867   0.05197   0.15384   0.16000
     Eigenvalues ---    0.16000   0.16011   0.16213   0.17799   0.22161
     Eigenvalues ---    0.22701   0.23700   0.24875   0.24999   0.25038
     Eigenvalues ---    0.26716   0.34709   0.34786   0.34842   0.35128
     Eigenvalues ---    0.35282   0.37801   0.38620   0.39210   0.39535
     Eigenvalues ---    0.39985   0.41115   0.42504   0.43479   0.45482
     Eigenvalues ---    0.46114   0.47219   0.47449   0.50222   1.27845
     Eigenvalues ---    1.28950
 RFO step:  Lambda=-8.07670628D-03 EMin= 1.60499542D-02
 Quartic linear search produced a step of -0.33793.
 Iteration  1 RMS(Cart)=  0.06041829 RMS(Int)=  0.03031846
 Iteration  2 RMS(Cart)=  0.04555592 RMS(Int)=  0.01018705
 Iteration  3 RMS(Cart)=  0.02037424 RMS(Int)=  0.00090442
 Iteration  4 RMS(Cart)=  0.00090567 RMS(Int)=  0.00006131
 Iteration  5 RMS(Cart)=  0.00000115 RMS(Int)=  0.00006130
 Iteration  6 RMS(Cart)=  0.00000000 RMS(Int)=  0.00006130
 Variable       Old X    -DE/DX   Delta X   Delta X   Delta X     New X
                                 (Linear)    (Quad)   (Total)
    R1        2.27038   0.00145  -0.00480   0.02315   0.01834   2.28873
    R2        2.76933   0.00114  -0.00454   0.02048   0.01594   2.78527
    R3        2.66079   0.00020   0.00159  -0.00436  -0.00279   2.65800
    R4        2.75587  -0.00481  -0.00408   0.00668   0.00261   2.75848
    R5        2.67310   0.00193  -0.00291   0.01711   0.01418   2.68728
    R6        2.07722  -0.00049  -0.00146   0.00483   0.00337   2.08059
    R7        2.63759   0.00056   0.00358  -0.00698  -0.00340   2.63419
    R8        2.07442  -0.00055  -0.00136   0.00470   0.00334   2.07776
    R9        2.71822   0.00107  -0.00554   0.02538   0.01986   2.73808
   R10        2.08066  -0.00040  -0.00243   0.00801   0.00558   2.08624
   R11        2.79253  -0.00629  -0.00561   0.01426   0.00865   2.80117
   R12        2.79766   0.00662  -0.02075   0.08571   0.06504   2.86271
   R13        2.73112  -0.00250  -0.00382   0.00652   0.00258   2.73370
   R14        2.67864   0.00205  -0.00024   0.00556   0.00524   2.68388
   R15        2.75379  -0.00154  -0.00254   0.00796   0.00542   2.75922
   R16        2.67029  -0.00064   0.00033   0.00391   0.00427   2.67456
   R17        2.08484  -0.00081  -0.00109   0.00392   0.00284   2.08767
   R18        2.70767   0.00413  -0.01268   0.05204   0.03947   2.74714
   R19        2.08828   0.00025  -0.00289   0.01238   0.00950   2.09778
   R20        2.27114  -0.00050  -0.00496   0.02254   0.01758   2.28872
    A1        2.01832   0.00251   0.00206   0.00226   0.00433   2.02265
    A2        2.16252  -0.00359  -0.00279  -0.00074  -0.00352   2.15900
    A3        2.10234   0.00107   0.00073  -0.00152  -0.00081   2.10153
    A4        2.11073  -0.00207   0.00128  -0.00905  -0.00782   2.10290
    A5        2.07470   0.00121   0.00201  -0.00431  -0.00227   2.07243
    A6        2.09776   0.00086  -0.00330   0.01336   0.01009   2.10785
    A7        2.08234  -0.00012   0.00099  -0.00107  -0.00012   2.08222
    A8        2.08782  -0.00006   0.00198  -0.00821  -0.00621   2.08161
    A9        2.11303   0.00018  -0.00297   0.00928   0.00633   2.11936
   A10        2.16455  -0.00113  -0.00922   0.02809   0.01888   2.18343
   A11        2.08879   0.00049  -0.00237   0.00882   0.00645   2.09524
   A12        2.02984   0.00064   0.01159  -0.03691  -0.02532   2.00452
   A13        2.02653   0.00029   0.01252  -0.04502  -0.03249   1.99405
   A14        2.02669   0.00238   0.00595  -0.00955  -0.00364   2.02305
   A15        2.22996  -0.00267  -0.01848   0.05457   0.03613   2.26609
   A16        2.07988   0.00196  -0.00631   0.02857   0.02237   2.10224
   A17        2.17046  -0.00505   0.00638  -0.03670  -0.03024   2.14022
   A18        2.03284   0.00310  -0.00007   0.00813   0.00788   2.04072
   A19        2.06136   0.00078   0.00840  -0.02880  -0.02065   2.04071
   A20        2.17451  -0.00464  -0.00576   0.00561  -0.00003   2.17448
   A21        2.04731   0.00386  -0.00263   0.02319   0.02068   2.06799
   A22        2.12685  -0.00039  -0.00192   0.00619   0.00419   2.13104
   A23        2.03655   0.00184   0.00649  -0.01618  -0.00965   2.02691
   A24        2.11978  -0.00145  -0.00457   0.00999   0.00546   2.12524
   A25        2.22268  -0.00199  -0.02270   0.07289   0.05032   2.27300
   A26        1.98669   0.00190   0.02014  -0.06163  -0.04155   1.94515
   A27        2.07381   0.00009   0.00255  -0.01126  -0.00877   2.06504
   A28        1.89267   0.00118   0.03477  -0.11298  -0.07786   1.81481
   A29        3.42542  -0.01858  -0.07311  -0.40220  -0.47531   2.95011
   A30        3.28603  -0.00572  -0.02183  -0.01288  -0.03472   3.25131
   A31        3.14081   0.00007   0.00032   0.00151   0.00183   3.14263
   A32        3.14170  -0.00002  -0.00006  -0.00004  -0.00009   3.14161
    D1       -3.14145   0.00000  -0.00019   0.00038   0.00019  -3.14126
    D2        0.00020   0.00000  -0.00029   0.00054   0.00026   0.00046
    D3       -0.00029   0.00001   0.00033  -0.00051  -0.00018  -0.00047
    D4        3.14136   0.00001   0.00023  -0.00035  -0.00012   3.14125
    D5        3.14126   0.00001   0.00026  -0.00046  -0.00019   3.14107
    D6       -0.00034   0.00000   0.00034  -0.00064  -0.00030  -0.00064
    D7        0.00014  -0.00001  -0.00031   0.00051   0.00020   0.00035
    D8       -3.14146  -0.00001  -0.00023   0.00033   0.00010  -3.14136
    D9        0.00026  -0.00001  -0.00025   0.00040   0.00015   0.00042
   D10       -3.14139  -0.00001  -0.00017   0.00026   0.00009  -3.14130
   D11       -3.14139   0.00000  -0.00015   0.00023   0.00008  -3.14130
   D12        0.00014   0.00000  -0.00007   0.00009   0.00002   0.00017
   D13       -0.00010   0.00000   0.00015  -0.00030  -0.00015  -0.00025
   D14        3.14159   0.00000  -0.00021   0.00053   0.00031  -3.14128
   D15        3.14155   0.00000   0.00007  -0.00016  -0.00009   3.14147
   D16        0.00006   0.00000  -0.00029   0.00067   0.00038   0.00043
[...]
 ! D14   D(4,5,6,17)           179.9988         -DE/DX =    0.0                 !
 ! D15   D(16,5,6,7)          -179.9998         -DE/DX =    0.0                 !
 ! D16   D(16,5,6,17)           -0.0006         -DE/DX =    0.0                 !
 ! D17   D(5,6,7,8)             -0.0015         -DE/DX =    0.0                 !
 ! D18   D(5,6,7,12)           179.9981         -DE/DX =    0.0                 !
 ! D19   D(17,6,7,8)           179.9993         -DE/DX =    0.0                 !
 ! D20   D(17,6,7,12)           -0.0011         -DE/DX =    0.0                 !
 ! D21   D(6,7,8,3)              0.003          -DE/DX =    0.0                 !
 ! D22   D(6,7,8,9)           -179.9972         -DE/DX =    0.0                 !
 ! D23   D(12,7,8,3)          -179.9966         -DE/DX =    0.0                 !
 ! D24   D(12,7,8,9)             0.0032         -DE/DX =    0.0                 !
 ! D25   D(6,7,12,11)         -179.9987         -DE/DX =    0.0                 !
 ! D26   D(8,7,12,11)            0.0009         -DE/DX =    0.0                 !
 ! D27   D(3,8,9,10)           179.9961         -DE/DX =    0.0                 !
 ! D28   D(3,8,9,14)            -0.0052         -DE/DX =    0.0                 !
 ! D29   D(7,8,9,10)            -0.0037         -DE/DX =    0.0                 !
 ! D30   D(7,8,9,14)           179.995          -DE/DX =    0.0                 !
 ! D31   D(8,9,10,11)            0.0003         -DE/DX =    0.0                 !
 ! D32   D(8,9,10,18)          179.9995         -DE/DX =    0.0                 !
 ! D33   D(14,9,10,11)        -179.9985         -DE/DX =    0.0                 !
 ! D34   D(14,9,10,18)           0.0007         -DE/DX =    0.0                 !
 ! D35   D(9,10,11,12)           0.0046         -DE/DX =    0.0                 !
 ! D36   D(9,10,11,19)        -179.998          -DE/DX =    0.0                 !
 ! D37   D(18,10,11,12)       -179.9945         -DE/DX =    0.0                 !
 ! D38   D(18,10,11,19)          0.0028         -DE/DX =    0.0                 !
 ! D39   D(10,11,12,7)          -0.0048         -DE/DX =    0.0                 !
 ! D40   D(19,11,12,7)         179.9979         -DE/DX =    0.0                 !
 --------------------------------------------------------------------------------
 GradGradGradGradGradGradGradGradGradGradGradGradGradGradGradGradGradGrad

                          Input orientation:                          
 ---------------------------------------------------------------------
 Center     Atomic      Atomic             Coordinates (Angstroms)
 Number     Number       Type             X           Y           Z
 ---------------------------------------------------------------------
      1          7           0        0.929495    0.200208   -0.003986
      2          6           0        2.112567   -0.004230   -0.003776
      3          6           0        3.574363   -0.095291   -0.003438
      4          6           0        4.265905    1.131368   -0.003134
      5          6           0        5.681889    1.165302   -0.002834
      6          6           0        6.391957   -0.035799   -0.002863
      7          6           0        5.769111   -1.332577   -0.003173
      8          6           0        4.301175   -1.358024   -0.003438
      9          6           0        3.670355   -2.659103   -0.003688
     10          6           0        4.506363   -3.805699   -0.003741
     11          6           0        5.913928   -3.707376   -0.003552
     12          6           0        6.697327   -2.501849   -0.003197
     13          7           0        1.069899   -3.178221   -0.004011
     14          6           0        2.232406   -2.875384   -0.003862
     15          1           0        3.691252    2.067571   -0.003140
     16          1           0        6.201328    2.131657   -0.002595
     17          1           0        7.492276   -0.021290   -0.002653
     18          1           0        4.010222   -4.790084   -0.003924
     19          1           0        6.440721   -4.678509   -0.003654
 ---------------------------------------------------------------------
                    Distance matrix (angstroms):
                    1          2          3          4          5
     1  N    0.000000
     2  C    1.200605   0.000000
     3  C    2.661324   1.464630   0.000000
     4  C    3.463913   2.434430   1.408162   0.000000
     5  C    4.849397   3.756044   2.455760   1.416390   0.000000
     6  C    5.467557   4.279506   2.818221   2.425360   1.395292
     7  C    5.076545   3.890350   2.519483   2.886287   2.499402
     8  C    3.714338   2.573473   1.456966   2.489641   2.876377
     9  C    3.960804   3.078157   2.565608   3.836971   4.321151
    10  C    5.370407   4.492374   3.825670   4.942919   5.108103
    11  C    6.333544   5.306942   4.303571   5.111694   4.878200
    12  C    6.369379   5.220931   3.942642   4.371736   3.805142
    13  N    3.381345   3.340865   3.972003   5.365353   6.335349
    14  C    3.340186   2.873654   3.087032   4.493237   5.312821
    15  H    3.333818   2.604727   2.166018   1.098500   2.185572
    16  H    5.614510   4.613023   3.443870   2.178633   1.097114
    17  H    6.566517   5.379736   3.918611   3.426089   2.164602
    18  H    5.864630   5.148349   4.714982   5.926969   6.185555
    19  H    7.360400   6.370385   5.405728   6.203587   5.892873
                    6          7          8          9         10
     6  C    0.000000
     7  C    1.438601   0.000000
     8  C    2.473792   1.468156   0.000000
     9  C    3.780058   2.482831   1.445940   0.000000
    10  C    4.215165   2.776844   2.456261   1.419011   0.000000
    11  C    3.702565   2.379210   2.849636   2.476388   1.410995
    12  C    2.484885   1.492910   2.655161   3.031055   2.549579
    13  N    6.180544   5.048663   3.708674   2.651764   3.493281
    14  C    5.036378   3.858566   2.565577   1.454123   2.456902
    15  H    3.423152   3.984784   3.479469   4.726720   5.929562
    16  H    2.175823   3.491094   3.973469   5.418230   6.174554
    17  H    1.100415   2.165357   3.459766   4.643828   4.820522
    18  H    5.317508   3.879180   3.444371   2.157914   1.102347
    19  H    4.642966   3.412670   3.950099   3.428255   2.122154
                   11         12         13         14         15
    11  C    0.000000
    12  C    1.437710   0.000000
    13  N    4.872846   5.667930   0.000000
    14  C    3.774362   4.480519   1.201305   0.000000
    15  H    6.187916   5.469560   5.864284   5.153740   0.000000
    16  H    5.846102   4.659978   7.384198   6.389273   2.510894
    17  H    4.009789   2.604825   7.156336   5.984319   4.337179
    18  H    2.190058   3.529384   3.353148   2.612797   6.865069
    19  H    1.104813   2.191734   5.576432   4.578337   7.284859
                   16         17         18         19
    16  H    0.000000
    17  H    2.510324   0.000000
    18  H    7.260265   5.904752   0.000000
    19  H    6.814373   4.774459   2.433058   0.000000
 Stoichiometry    C12H5N2(1-)
 Framework group  C1[X(C12H5N2)]
 Deg. of freedom    51
 Full point group                 C1      NOp   1
 Largest Abelian subgroup         C1      NOp   1
 Largest concise Abelian subgroup C1      NOp   1
                         Standard orientation:                         
 ---------------------------------------------------------------------
 Center     Atomic      Atomic             Coordinates (Angstroms)
 Number     Number       Type             X           Y           Z
 ---------------------------------------------------------------------
      1          7           0        3.022451   -1.809015   -0.000155
      2          6           0        1.860846   -1.505489   -0.000121
      3          6           0        0.411945   -1.291419   -0.000020
      4          6           0       -0.380626   -2.455357    0.000026
      5          6           0       -1.794424   -2.369702    0.000082
      6          6           0       -2.400621   -1.112974    0.000071
      7          6           0       -1.670585    0.126630    0.000015
      8          6           0       -0.205737    0.028134    0.000002
      9          6           0        0.532608    1.271350    0.000009
     10          6           0       -0.203679    2.484394   -0.000054
     11          6           0       -1.614521    2.505179   -0.000115
     12          6           0       -2.496839    1.370047   -0.000032
     13          7           0        3.167591    1.569214    0.000186
     14          6           0        1.983677    1.365539    0.000103
     15          1           0        0.112989   -3.436706    0.000009
     16          1           0       -2.393544   -3.288786    0.000121
     17          1           0       -3.498241   -1.034596    0.000093
     18          1           0        0.373746    3.423409   -0.000039
     19          1           0       -2.057500    3.517296   -0.000195
 ---------------------------------------------------------------------
 Rotational constants (GHZ):      0.9292464      0.7955436      0.4286064

 **********************************************************************

            Population analysis using the SCF density.

 **********************************************************************

 Orbital symmetries:
       Occupied  (A) (A) (A) (A) (A) (A) (A) (A) (A) (A) (A) (A)
                 (A) (A) (A) (A) (A) (A) (A) (A) (A) (A) (A) (A)
                 (A) (A) (A) (A) (A) (A) (A) (A) (A) (A) (A) (A)
                 (A) (A) (A) (A) (A) (A) (A) (A) (A) (A)
       Virtual   (A) (A) (A) (A) (A) (A) (A) (A) (A) (A) (A) (A)
                 (A) (A) (A) (A) (A) (A) (A) (A) (A) (A) (A) (A)
                 (A) (A) (A) (A) (A)
 The electronic state is 1-A.
 Alpha  occ. eigenvalues --  -13.98257 -13.95662  -9.89997  -9.88653  -9.88321
 Alpha  occ. eigenvalues --   -9.87328  -9.86546  -9.86501  -9.86382  -9.86263
 Alpha  occ. eigenvalues --   -9.84928  -9.82886  -9.79119  -9.67183  -0.71659
 Alpha  occ. eigenvalues --   -0.69549  -0.66693  -0.61615  -0.57709  -0.53900
 Alpha  occ. eigenvalues --   -0.51215  -0.44408  -0.41503  -0.40106  -0.34990
 Alpha  occ. eigenvalues --   -0.31764  -0.30096  -0.27376  -0.25105  -0.21568
 Alpha  occ. eigenvalues --   -0.20346  -0.20274  -0.19714  -0.17106  -0.15838
 Alpha  occ. eigenvalues --   -0.14212  -0.13909  -0.13509  -0.12288  -0.10671
 Alpha  occ. eigenvalues --   -0.09636  -0.08487  -0.05927  -0.03301   0.02296
 Alpha  occ. eigenvalues --    0.10855
 Alpha virt. eigenvalues --    0.17404   0.22592   0.23635   0.25615   0.29681
 Alpha virt. eigenvalues --    0.30500   0.36024   0.36978   0.44023   0.46054
 Alpha virt. eigenvalues --    0.46874   0.49636   0.53863   0.54512   0.58130
 Alpha virt. eigenvalues --    0.59829   0.62241   0.62380   0.67386   0.69908
 Alpha virt. eigenvalues --    0.70974   0.74150   0.78211   0.82921   0.85038
 Alpha virt. eigenvalues --    0.91252   0.92622   1.07026   1.09646
          Condensed to atoms (all electrons):
               1          2          3          4          5          6
     1  N    6.582399   0.659319  -0.010754  -0.000400   0.000000   0.000000
     2  C    0.659319   4.936347   0.416091  -0.033949   0.000955   0.000007
     3  C   -0.010754   0.416091   4.784101   0.505029  -0.028949  -0.010212
     4  C   -0.000400  -0.033949   0.505029   4.826912   0.485700  -0.029805
     5  C    0.000000   0.000955  -0.028949   0.485700   4.841154   0.510672
     6  C    0.000000   0.000007  -0.010212  -0.029805   0.510672   4.839086
     7  C   -0.000001   0.000640  -0.022373  -0.008613  -0.025419   0.468158
     8  C    0.000083  -0.024066   0.452999  -0.027451  -0.007738  -0.033057
     9  C   -0.000005  -0.003050  -0.026633   0.000653   0.000032   0.000838
    10  C    0.000000   0.000011   0.000685  -0.000006   0.000000   0.000015
    11  C    0.000000   0.000000   0.000040   0.000000  -0.000015   0.001408
    12  C    0.000000  -0.000003   0.000522   0.000014   0.000799  -0.036056
    13  N   -0.000510  -0.000366  -0.000002   0.000000   0.000000   0.000000
    14  C   -0.000475   0.002696  -0.003147   0.000010   0.000000  -0.000006
    15  H    0.000044  -0.004115  -0.025795   0.387078  -0.024678   0.001393
    16  H    0.000000  -0.000019   0.001319  -0.025882   0.387904  -0.024775
    17  H    0.000000   0.000001   0.000032   0.001475  -0.026730   0.383839
    18  H    0.000000   0.000000  -0.000015   0.000000   0.000000   0.000001
    19  H    0.000000   0.000000   0.000001   0.000000   0.000000  -0.000016
               7          8          9         10         11         12
     1  N   -0.000001   0.000083  -0.000005   0.000000   0.000000   0.000000
     2  C    0.000640  -0.024066  -0.003050   0.000011   0.000000  -0.000003
     3  C   -0.022373   0.452999  -0.026633   0.000685   0.000040   0.000522
     4  C   -0.008613  -0.027451   0.000653  -0.000006   0.000000   0.000014
     5  C   -0.025419  -0.007738   0.000032   0.000000  -0.000015   0.000799
     6  C    0.468158  -0.033057   0.000838   0.000015   0.001408  -0.036056
     7  C    4.907585   0.439445  -0.029816  -0.013386  -0.029870   0.384227
     8  C    0.439445   4.819871   0.464558  -0.028699  -0.010529  -0.016357
     9  C   -0.029816   0.464558   4.813700   0.488723  -0.029373  -0.005885
    10  C   -0.013386  -0.028699   0.488723   4.852913   0.485722  -0.018064
    11  C   -0.029870  -0.010529  -0.029373   0.485722   4.939318   0.435501
    12  C    0.384227  -0.016357  -0.005885  -0.018064   0.435501   5.491844
    13  N   -0.000001   0.000080  -0.011454  -0.000363   0.000000   0.000000
    14  C    0.000674  -0.025112   0.426322  -0.031429   0.000825  -0.000003
    15  H    0.000028   0.001212  -0.000015   0.000000   0.000000   0.000000
    16  H    0.001251   0.000003   0.000001   0.000000   0.000000  -0.000018
    17  H   -0.026260   0.001423  -0.000016   0.000001   0.000041  -0.001734
    18  H    0.000102   0.001302  -0.028102   0.380783  -0.023395   0.001109
    19  H    0.002215  -0.000003   0.001453  -0.035780   0.380847  -0.031736
              13         14         15         16         17         18
     1  N   -0.000510  -0.000475   0.000044   0.000000   0.000000   0.000000
     2  C   -0.000366   0.002696  -0.004115  -0.000019   0.000001   0.000000
     3  C   -0.000002  -0.003147  -0.025795   0.001319   0.000032  -0.000015
     4  C    0.000000   0.000010   0.387078  -0.025882   0.001475   0.000000
     5  C    0.000000   0.000000  -0.024678   0.387904  -0.026730   0.000000
     6  C    0.000000  -0.000006   0.001393  -0.024775   0.383839   0.000001
     7  C   -0.000001   0.000674   0.000028   0.001251  -0.026260   0.000102
     8  C    0.000080  -0.025112   0.001212   0.000003   0.001423   0.001302
     9  C   -0.011454   0.426322  -0.000015   0.000001  -0.000016  -0.028102
    10  C   -0.000363  -0.031429   0.000000   0.000000   0.000001   0.380783
    11  C    0.000000   0.000825   0.000000   0.000000   0.000041  -0.023395
    12  C    0.000000  -0.000003   0.000000  -0.000018  -0.001734   0.001109
    13  N    6.606471   0.656978   0.000000   0.000000   0.000000   0.000059
    14  C    0.656978   4.940603   0.000000   0.000000   0.000000  -0.003960
    15  H    0.000000   0.000000   0.605784  -0.003421  -0.000035   0.000000
    16  H    0.000000   0.000000  -0.003421   0.616066  -0.003646   0.000000
    17  H    0.000000   0.000000  -0.000035  -0.003646   0.603515   0.000000
    18  H    0.000059  -0.003960   0.000000   0.000000   0.000000   0.627315
    19  H    0.000000  -0.000020   0.000000   0.000000  -0.000004  -0.003970
              19
     1  N    0.000000
     2  C    0.000000
     3  C    0.000001
     4  C    0.000000
     5  C    0.000000
     6  C   -0.000016
     7  C    0.002215
     8  C   -0.000003
     9  C    0.001453
    10  C   -0.035780
    11  C    0.380847
    12  C   -0.031736
    13  N    0.000000
    14  C   -0.000020
    15  H    0.000000
    16  H    0.000000
    17  H   -0.000004
    18  H   -0.003970
    19  H    0.669409
 Mulliken charges:
               1
     1  N   -0.229701
     2  C    0.049501
     3  C   -0.032940
     4  C   -0.080765
     5  C   -0.113686
     6  C   -0.071489
     7  C   -0.048587
     8  C   -0.007965
     9  C   -0.061930
    10  C   -0.081126
    11  C   -0.150521
    12  C   -0.204158
    13  N   -0.250892
    14  C    0.036043
    15  H    0.062520
    16  H    0.051218
    17  H    0.068100
    18  H    0.048772
    19  H    0.017605
 Sum of Mulliken charges =  -1.00000
 Mulliken charges with hydrogens summed into heavy atoms:
               1
     1  N   -0.229701
     2  C    0.049501
     3  C   -0.032940
     4  C   -0.018244
     5  C   -0.062469
     6  C   -0.003390
     7  C   -0.048587
     8  C   -0.007965
     9  C   -0.061930
    10  C   -0.032354
    11  C   -0.132915
    12  C   -0.204158
    13  N   -0.250892
    14  C    0.036043
 Electronic spatial extent (au):  <R**2>=           2436.8239
 Charge=             -1.0000 electrons
 Dipole moment (field-independent basis, Debye):
    X=             -1.3350    Y=             -3.0010    Z=              0.0000  Tot=              3.2846
 Quadrupole moment (field-independent basis, Debye-Ang):
   XX=           -118.3674   YY=            -85.6011   ZZ=            -74.1572
   XY=              8.4634   XZ=             -0.0004   YZ=             -0.0005
 Traceless Quadrupole moment (field-independent basis, Debye-Ang):
   XX=            -25.6589   YY=              7.1075   ZZ=             18.5514
   XY=              8.4634   XZ=             -0.0004   YZ=             -0.0005
 Octapole moment (field-independent basis, Debye-Ang**2):
  XXX=            -39.8341  YYY=            -13.4925  ZZZ=              0.0000  XYY=             -2.4478
  XXY=            -27.4575  XXZ=             -0.0007  XZZ=              6.2599  YZZ=             -0.2289
  YYZ=              0.0005  XYZ=             -0.0030
 Hexadecapole moment (field-independent basis, Debye-Ang**3):
 XXXX=          -2100.4270 YYYY=          -1467.3472 ZZZZ=            -58.3654 XXXY=             86.8639
 XXXZ=             -0.0054 YYYX=             41.1997 YYYZ=             -0.0007 ZZZX=              0.0003
 ZZZY=              0.0019 XXYY=           -635.8353 XXZZ=           -275.8666 YYZZ=           -262.5305
 XXYZ=             -0.0100 YYXZ=             -0.0009 ZZXY=             -0.9636
 N-N= 7.122044057319D+02 E-N=-2.746950921360D+03  KE= 5.547193213758D+02
 1\1\GINC-N053\FOpt\RB3LYP\STO-3G\C12H5N2(1-)\R2532\15-Jun-2021\0\\#N B
 3LYP/STO-3G OPT\\1Naph\\-1,1\N,0.9294954173,0.2002077297,-0.003986421\
 C,2.1125670747,-0.0042300481,-0.0037761573\C,3.5743634619,-0.095290678
 4,-0.0034376159\C,4.2659054413,1.1313676292,-0.0031335781\C,5.68188878
 99,1.1653020086,-0.0028341974\C,6.3919566357,-0.0357988592,-0.00286277
 27\C,5.7691109152,-1.3325774787,-0.0031732646\C,4.3011750824,-1.358023
 6728,-0.0034376443\C,3.6703545412,-2.659102663,-0.0036880618\C,4.50636
 2969,-3.8056991056,-0.0037409714\C,5.9139279326,-3.7073759495,-0.00355
 23008\C,6.6973272771,-2.5018486144,-0.0031973113\N,1.0698987683,-3.178
 2213367,-0.0040112462\C,2.2324063782,-2.8753838484,-0.0038623764\H,3.6
 91251897,2.0675707999,-0.0031403061\H,6.2013283095,2.1316574008,-0.002
 5952375\H,7.492275801,-0.0212901695,-0.0026526594\H,4.010222285,-4.790
 0839794,-0.0039235431\H,6.4407210228,-4.6785091645,-0.0036543348\\Vers
 ion=ES64L-G09RevD.01\State=1-A\HF=-562.5101422\RMSD=3.774e-09\RMSF=2.7
 08e-05\Dipole=0.4237457,1.2207921,0.000199\Quadrupole=-19.9613236,6.16
 88362,13.7924874,4.1546997,-0.0049807,0.0002099\PG=C01 [X(C12H5N2)]\\@


 TIME GOES, YOU SAY?  AH NO!
 ALAS, TIME STAYS, WE GO.
    -- A. DOBSON (1840-1921)
 Job cpu time:       0 days  0 hours  4 minutes  7.0 seconds.
 File lengths (MBytes):  RWF=      5 Int=      0 D2E=      0 Chk=      2 Scr=      1
 Normal termination of Gaussian 09 at Tue Jun 15 11:17:46 2021.
