 Entering Gaussian System, Link 0=/usr/local/apps//g09/g09
 Input=2.com
 Output=2.out
 Initial command:
 /usr/local/apps//g09/l1.exe "/tmp/bnp.472674.sequoia/Gau-27181.inp" -scrdir="/tmp/bnp.472674.sequoia/"
 Entering Link 1 = /usr/local/apps//g09/l1.exe PID=     27182.
  
 Copyright (c) 1988,1990,1992,1993,1995,1998,2003,2009,2013,
            Gaussian, Inc.  All Rights Reserved.
  
 This is part of the Gaussian(R) 09 program.  It is based on
 the Gaussian(R) 03 system (copyright 2003, Gaussian, Inc.),
 the Gaussian(R) 98 system (copyright 1998, Gaussian, Inc.),
 the Gaussian(R) 94 system (copyright 1995, Gaussian, Inc.),
 the Gaussian 92(TM) system (copyright 1992, Gaussian, Inc.),
 the Gaussian 90(TM) system (copyright 1990, Gaussian, Inc.),
 the Gaussian 88(TM) system (copyright 1988, Gaussian, Inc.),
 the Gaussian 86(TM) system (copyright 1986, Carnegie Mellon
 University), and the Gaussian 82(TM) system (copyright 1983,
 Carnegie Mellon University). Gaussian is a federally registered
 trademark of Gaussian, Inc.
  
 This software contains proprietary and confidential information,
 including trade secrets, belonging to Gaussian, Inc.
  
 This software is provided under written license and may be
 used, copied, transmitted, or stored only in accord with that
 written license.
  
 The following legend is applicable only to US Government
 contracts under FAR:
  
                    RESTRICTED RIGHTS LEGEND
  
 Use, reproduction and disclosure by the US Government is
 subject to restrictions as set forth in subparagraphs (a)
 and (c) of the Commercial Computer Software - Restricted
 Rights clause in FAR 52.227-19.
  
 Gaussian, Inc.
 340 Quinnipiac St., Bldg. 40, Wallingford CT 06492
  
  
 ---------------------------------------------------------------
 Warning -- This program may not be used in any manner that
 competes with the business of Gaussian, Inc. or will provide
 assistance to any competitor of Gaussian, Inc.  The licensee
 of this program is prohibited from giving any competitor of
 Gaussian, Inc. access to this program.  By using this program,
 the user acknowledges that Gaussian, Inc. is engaged in the
 business of creating and licensing software in the field of
 computational chemistry and represents and warrants to the
 licensee that it is not a competitor of Gaussian, Inc. and that
 it will not use this program in any manner prohibited above.
 ---------------------------------------------------------------
  

 Cite this work as:
 Gaussian 09, Revision D.01,
 M. J. Frisch, G. W. Trucks, H. B. Schlegel, G. E. Scuseria, 
 M. A. Robb, J. R. Cheeseman, G. Scalmani, V. Barone, B. Mennucci, 
 G. A. Petersson, H. Nakatsuji, M. Caricato, X. Li, H. P. Hratchian, 
 A. F. Izmaylov, J. Bloino, G. Zheng, J. L. Sonnenberg, M. Hada, 
 M. Ehara, K. Toyota, R. Fukuda, J. Hasegawa, M. Ishida, T. Nakajima, 
 Y. Honda, O. Kitao, H. Nakai, T. Vreven, J. A. Montgomery, Jr., 
 J. E. Peralta, F. Ogliaro, M. Bearpark, J. J. Heyd, E. Brothers, 
 K. N. Kudin, V. N. Staroverov, T. Keith, R. Kobayashi, J. Normand, 
 K. Raghavachari, A. Rendell, J. C. Burant, S. S. Iyengar, J. Tomasi, 
 M. Cossi, N. Rega, J. M. Millam, M. Klene, J. E. Knox, J. B. Cross, 
 V. Bakken, C. Adamo, J. Jaramillo, R. Gomperts, R. E. Stratmann, 
 O. Yazyev, A. J. Austin, R. Cammi, C. Pomelli, J. W. Ochterski, 
 R. L. Martin, K. Morokuma, V. G. Zakrzewski, G. A. Voth, 
 P. Salvador, J. J. Dannenberg, S. Dapprich, A. D. Daniels, 
 O. Farkas, J. B. Foresman, J. V. Ortiz, J. Cioslowski, 
 and D. J. Fox, Gaussian, Inc., Wallingford CT, 2013.
 
 ******************************************
 Gaussian 09:  ES64L-G09RevD.01 24-Apr-2013
                15-Jun-2021 
 ******************************************
 -------------------
 #N B3LYP/STO-3G OPT
 -------------------
 1/14=-1,18=20,19=15,26=3,38=1/1,3;
 2/9=110,12=2,17=6,18=5,40=1/2;
 3/6=3,11=2,16=1,25=1,30=1,71=1,74=-5/1,2,3;
 4//1;
 5/5=2,38=5/2;
 6/7=2,8=2,9=2,10=2,28=1/1;
 7//1,2,3,16;
 1/14=-1,18=20,19=15,26=3/3(2);
 2/9=110/2;
 99//99;
 2/9=110/2;
 3/6=3,11=2,16=1,25=1,30=1,71=1,74=-5/1,2,3;
 4/5=5,16=3,69=1/1;
 5/5=2,38=5/2;
 7//1,2,3,16;
 1/14=-1,18=20,19=15,26=3/3(-5);
 2/9=110/2;
 6/7=2,8=2,9=2,10=2,19=2,28=1/1;
 99/9=1/99;
 -----
 1Naph
 -----
 Symbolic Z-matrix:
 Charge = -1 Multiplicity = 1
 N                     1.1828   -0.13224  -0.05879 
 C                     2.34189  -0.10707  -0.05863 
 C                     3.78063  -0.0645   -0.05816 
 C                     4.44638   1.17362  -0.05779 
 C                     5.84539   1.21275  -0.05693 
 C                     6.58354   0.03035  -0.05656 
 C                     5.9412   -1.213    -0.05724 
 C                     4.52629  -1.27006  -0.05781 
 C                     3.92055  -2.53989  -0.05802 
 C                     4.67259  -3.71338  -0.05788 
 C                     6.0607   -3.64383  -0.05774 
 C                     6.69097  -2.39993  -0.05751 
 N                     3.19731   3.44878  -0.05781 
 C                     3.73604   2.42172  -0.05763 
 H                     6.37286   2.16634  -0.05629 
 H                     7.67111   0.0885   -0.05624 
 H                     4.17067  -4.67721  -0.05813 
 H                     6.65545  -4.55419  -0.05784 
 H                     7.77925  -2.36561  -0.05713 
 

 GradGradGradGradGradGradGradGradGradGradGradGradGradGradGradGradGradGrad
 Berny optimization.
 Initialization pass.
                           ----------------------------
                           !    Initial Parameters    !
                           ! (Angstroms and Degrees)  !
 --------------------------                            --------------------------
 ! Name  Definition              Value          Derivative Info.                !
 --------------------------------------------------------------------------------
 ! R1    R(1,2)                  1.1594         estimate D2E/DX2                !
 ! R2    R(2,3)                  1.4394         estimate D2E/DX2                !
 ! R3    R(3,4)                  1.4058         estimate D2E/DX2                !
 ! R4    R(3,8)                  1.4175         estimate D2E/DX2                !
 ! R5    R(4,5)                  1.3996         estimate D2E/DX2                !
 ! R6    R(4,14)                 1.4361         estimate D2E/DX2                !
 ! R7    R(5,6)                  1.3939         estimate D2E/DX2                !
 ! R8    R(5,15)                 1.0898         estimate D2E/DX2                !
 ! R9    R(6,7)                  1.3995         estimate D2E/DX2                !
 ! R10   R(6,16)                 1.0891         estimate D2E/DX2                !
 ! R11   R(7,8)                  1.4161         estimate D2E/DX2                !
 ! R12   R(7,12)                 1.4039         estimate D2E/DX2                !
 ! R13   R(8,9)                  1.4069         estimate D2E/DX2                !
 ! R14   R(9,10)                 1.3938         estimate D2E/DX2                !
 ! R15   R(10,11)                1.3899         estimate D2E/DX2                !
 ! R16   R(10,17)                1.0867         estimate D2E/DX2                !
 ! R17   R(11,12)                1.3945         estimate D2E/DX2                !
 ! R18   R(11,18)                1.0874         estimate D2E/DX2                !
 ! R19   R(12,19)                1.0888         estimate D2E/DX2                !
 ! R20   R(13,14)                1.1598         estimate D2E/DX2                !
 ! A1    A(2,3,4)              119.9622         estimate D2E/DX2                !
 ! A2    A(2,3,8)              120.0427         estimate D2E/DX2                !
 ! A3    A(4,3,8)              119.9951         estimate D2E/DX2                !
 ! A4    A(3,4,5)              119.8695         estimate D2E/DX2                !
 ! A5    A(3,4,14)             122.0868         estimate D2E/DX2                !
 ! A6    A(5,4,14)             118.0437         estimate D2E/DX2                !
 ! A7    A(4,5,6)              120.3736         estimate D2E/DX2                !
 ! A8    A(4,5,15)             120.5509         estimate D2E/DX2                !
 ! A9    A(6,5,15)             119.0754         estimate D2E/DX2                !
 ! A10   A(5,6,7)              120.7024         estimate D2E/DX2                !
 ! A11   A(5,6,16)             118.9152         estimate D2E/DX2                !
 ! A12   A(7,6,16)             120.3824         estimate D2E/DX2                !
 ! A13   A(6,7,8)              119.6312         estimate D2E/DX2                !
 ! A14   A(6,7,12)             120.3981         estimate D2E/DX2                !
 ! A15   A(8,7,12)             119.9708         estimate D2E/DX2                !
 ! A16   A(3,8,7)              119.4282         estimate D2E/DX2                !
 ! A17   A(3,8,9)              122.7602         estimate D2E/DX2                !
 ! A18   A(7,8,9)              117.8116         estimate D2E/DX2                !
 ! A19   A(8,9,10)             121.8436         estimate D2E/DX2                !
 ! A20   A(9,10,11)            119.7857         estimate D2E/DX2                !
 ! A21   A(9,10,17)            119.8374         estimate D2E/DX2                !
 ! A22   A(11,10,17)           120.3769         estimate D2E/DX2                !
 ! A23   A(10,11,12)           119.7392         estimate D2E/DX2                !
 ! A24   A(10,11,18)           120.2888         estimate D2E/DX2                !
 ! A25   A(12,11,18)           119.9721         estimate D2E/DX2                !
 ! A26   A(7,12,11)            120.8491         estimate D2E/DX2                !
 ! A27   A(7,12,19)            120.4738         estimate D2E/DX2                !
 ! A28   A(11,12,19)           118.6771         estimate D2E/DX2                !
 ! A29   L(1,2,3,13,-1)        179.5492         estimate D2E/DX2                !
 ! A30   L(4,14,13,1,-1)       181.9672         estimate D2E/DX2                !
 ! A31   L(1,2,3,13,-2)        179.9889         estimate D2E/DX2                !
 ! A32   L(4,14,13,1,-2)       180.0166         estimate D2E/DX2                !
 ! D1    D(2,3,4,5)            179.981          estimate D2E/DX2                !
 ! D2    D(2,3,4,14)             0.011          estimate D2E/DX2                !
 ! D3    D(8,3,4,5)             -0.0069         estimate D2E/DX2                !
 ! D4    D(8,3,4,14)          -179.9769         estimate D2E/DX2                !
 ! D5    D(2,3,8,7)           -179.9949         estimate D2E/DX2                !
 ! D6    D(2,3,8,9)              0.0058         estimate D2E/DX2                !
 ! D7    D(4,3,8,7)             -0.0071         estimate D2E/DX2                !
 ! D8    D(4,3,8,9)            179.9937         estimate D2E/DX2                !
 ! D9    D(3,4,5,6)              0.0058         estimate D2E/DX2                !
 ! D10   D(3,4,5,15)          -179.9789         estimate D2E/DX2                !
 ! D11   D(14,4,5,6)           179.977          estimate D2E/DX2                !
 ! D12   D(14,4,5,15)           -0.0077         estimate D2E/DX2                !
 ! D13   D(4,5,6,7)              0.0095         estimate D2E/DX2                !
 ! D14   D(4,5,6,16)           179.9789         estimate D2E/DX2                !
 ! D15   D(15,5,6,7)           179.9945         estimate D2E/DX2                !
 ! D16   D(15,5,6,16)           -0.0361         estimate D2E/DX2                !
 ! D17   D(5,6,7,8)             -0.0235         estimate D2E/DX2                !
 ! D18   D(5,6,7,12)           179.9693         estimate D2E/DX2                !
 ! D19   D(16,6,7,8)          -179.9925         estimate D2E/DX2                !
 ! D20   D(16,6,7,12)            0.0004         estimate D2E/DX2                !
 ! D21   D(6,7,8,3)              0.0221         estimate D2E/DX2                !
 ! D22   D(6,7,8,9)           -179.9786         estimate D2E/DX2                !
 ! D23   D(12,7,8,3)          -179.9707         estimate D2E/DX2                !
 ! D24   D(12,7,8,9)             0.0285         estimate D2E/DX2                !
 ! D25   D(6,7,12,11)          179.9786         estimate D2E/DX2                !
 ! D26   D(6,7,12,19)            0.0039         estimate D2E/DX2                !
 ! D27   D(8,7,12,11)           -0.0286         estimate D2E/DX2                !
 ! D28   D(8,7,12,19)          179.9967         estimate D2E/DX2                !
 ! D29   D(3,8,9,10)           179.9898         estimate D2E/DX2                !
 ! D30   D(7,8,9,10)            -0.0095         estimate D2E/DX2                !
 ! D31   D(8,9,10,11)           -0.0103         estimate D2E/DX2                !
 ! D32   D(8,9,10,17)         -179.9951         estimate D2E/DX2                !
 ! D33   D(9,10,11,12)           0.0109         estimate D2E/DX2                !
 ! D34   D(9,10,11,18)        -179.9872         estimate D2E/DX2                !
 ! D35   D(17,10,11,12)        179.9957         estimate D2E/DX2                !
 ! D36   D(17,10,11,18)         -0.0024         estimate D2E/DX2                !
 ! D37   D(10,11,12,7)           0.0084         estimate D2E/DX2                !
 ! D38   D(10,11,12,19)        179.9836         estimate D2E/DX2                !
 ! D39   D(18,11,12,7)        -179.9934         estimate D2E/DX2                !
 ! D40   D(18,11,12,19)         -0.0183         estimate D2E/DX2                !
 --------------------------------------------------------------------------------
 Trust Radius=3.00D-01 FncErr=1.00D-07 GrdErr=1.00D-06
 Number of steps in this run=    102 maximum allowed number of steps=    114.
 GradGradGradGradGradGradGradGradGradGradGradGradGradGradGradGradGradGrad

                          Input orientation:                          
 ---------------------------------------------------------------------
 Center     Atomic      Atomic             Coordinates (Angstroms)
 Number     Number       Type             X           Y           Z
 ---------------------------------------------------------------------
      1          7           0        1.182800   -0.132240   -0.058790
      2          6           0        2.341890   -0.107070   -0.058630
      3          6           0        3.780630   -0.064500   -0.058160
      4          6           0        4.446380    1.173620   -0.057790
      5          6           0        5.845390    1.212750   -0.056930
      6          6           0        6.583540    0.030350   -0.056560
      7          6           0        5.941200   -1.213000   -0.057240
      8          6           0        4.526290   -1.270060   -0.057810
      9          6           0        3.920550   -2.539890   -0.058020
     10          6           0        4.672590   -3.713380   -0.057880
     11          6           0        6.060700   -3.643830   -0.057740
     12          6           0        6.690970   -2.399930   -0.057510
     13          7           0        3.197310    3.448780   -0.057810
     14          6           0        3.736040    2.421720   -0.057630
     15          1           0        6.372860    2.166340   -0.056290
     16          1           0        7.671110    0.088500   -0.056240
     17          1           0        4.170670   -4.677210   -0.058130
     18          1           0        6.655450   -4.554190   -0.057840
     19          1           0        7.779250   -2.365610   -0.057130
 ---------------------------------------------------------------------
                    Distance matrix (angstroms):
                    1          2          3          4          5
     1  N    0.000000
     2  C    1.159363   0.000000
     3  C    2.598713   1.439370   0.000000
     4  C    3.515142   2.463543   1.405761   0.000000
     5  C    4.852705   3.743854   2.427880   1.399557   0.000000
     6  C    5.403187   4.243876   2.804515   2.423741   1.393892
     7  C    4.879592   3.765384   2.446858   2.816104   2.427641
     8  C    3.531793   2.474702   1.417527   2.444986   2.811471
     9  C    3.645827   2.900135   2.479341   3.750554   4.217501
    10  C    5.000320   4.293907   3.756317   4.892233   5.063815
    11  C    6.010422   5.132078   4.243857   5.080734   4.861350
    12  C    5.956707   4.916473   3.731530   4.220005   3.710318
    13  N    4.108766   3.657296   3.561376   2.595482   3.465856
    14  C    3.611336   2.887635   2.486620   1.436084   2.431248
    15  H    5.676284   4.627863   3.419986   2.167215   1.089752
    16  H    6.492064   5.332808   3.893488   3.402407   2.144106
    17  H    5.439129   4.922460   4.629171   5.857323   6.123424
    18  H    7.035875   6.195456   5.331220   6.139039   5.823555
    19  H    6.964273   5.887775   4.613466   4.861499   4.067490
                    6          7          8          9         10
     6  C    0.000000
     7  C    1.399471   0.000000
     8  C    2.433792   1.416060   0.000000
     9  C    3.701034   2.417367   1.406908   0.000000
    10  C    4.203242   2.803796   2.447696   1.393787   0.000000
    11  C    3.711194   2.433766   2.826517   2.408096   1.389851
    12  C    2.432653   1.403908   2.441812   2.773953   2.408113
    13  N    4.811675   5.409355   4.902412   6.032184   7.312523
    14  C    3.718455   4.251343   3.775412   4.965040   6.206173
    15  H    2.146355   3.406798   3.901111   5.306828   6.120623
    16  H    1.089124   2.164831   3.425723   4.579862   4.842047
    17  H    5.289902   3.890441   3.425659   2.151905   1.086689
    18  H    4.585104   3.416680   3.913928   3.396628   2.153763
    19  H    2.677750   2.169548   3.432489   3.862634   3.386417
                   11         12         13         14         15
    11  C    0.000000
    12  C    1.394463   0.000000
    13  N    7.648799   6.812714   0.000000
    14  C    6.495763   5.655079   1.159777   0.000000
    15  H    5.818550   4.577337   3.424730   2.649158   0.000000
    16  H    4.064937   2.674502   5.595210   4.574789   2.450076
    17  H    2.154086   3.396751   8.184079   7.112223   7.189146
    18  H    1.087420   2.154553   8.718157   7.562161   6.726469
    19  H    2.141789   1.088821   7.402790   6.266265   4.745156
                   16         17         18         19
    16  H    0.000000
    17  H    5.913127   0.000000
    18  H    4.752488   2.487823   0.000000
    19  H    2.456492   4.285481   2.460246   0.000000
 Stoichiometry    C12H5N2(1-)
 Framework group  C1[X(C12H5N2)]
 Deg. of freedom    51
 Full point group                 C1      NOp   1
 Largest Abelian subgroup         C1      NOp   1
 Largest concise Abelian subgroup C1      NOp   1
                         Standard orientation:                         
 ---------------------------------------------------------------------
 Center     Atomic      Atomic             Coordinates (Angstroms)
 Number     Number       Type             X           Y           Z
 ---------------------------------------------------------------------
      1          7           0        1.813855    2.869453    0.000121
      2          6           0        1.331399    1.815243   -0.000145
      3          6           0        0.742737    0.501750   -0.000206
      4          6           0        1.566988   -0.637010   -0.000234
      5          6           0        0.992544   -1.913245    0.000110
      6          6           0       -0.393351   -2.062350    0.000359
      7          6           0       -1.232511   -0.942381    0.000070
      8          6           0       -0.667275    0.355978    0.000024
      9          6           0       -1.546218    1.454545    0.000194
     10          6           0       -2.930146    1.289055    0.000207
     11          6           0       -3.472461    0.009375   -0.000168
     12          6           0       -2.627546   -1.099970   -0.000325
     13          7           0        4.159073   -0.504255   -0.000084
     14          6           0        2.999896   -0.541566    0.000028
     15          1           0        1.620962   -2.803553    0.000437
     16          1           0       -0.814956   -3.066560    0.000275
     17          1           0       -3.578916    2.160829    0.000262
     18          1           0       -4.551013   -0.129212   -0.000371
     19          1           0       -3.070909   -2.094435   -0.000347
 ---------------------------------------------------------------------
 Rotational constants (GHZ):      1.3917041      0.5639327      0.4013155
 Standard basis: STO-3G (5D, 7F)
 There are    75 symmetry adapted cartesian basis functions of A   symmetry.
 There are    75 symmetry adapted basis functions of A   symmetry.
    75 basis functions,   225 primitive gaussians,    75 cartesian basis functions
    46 alpha electrons       46 beta electrons
       nuclear repulsion energy       715.7602578366 Hartrees.
 NAtoms=   19 NActive=   19 NUniq=   19 SFac= 1.00D+00 NAtFMM=   60 NAOKFM=F Big=F
 Integral buffers will be    131072 words long.
 Raffenetti 2 integral format.
 Two-electron integral symmetry is turned on.
 One-electron integrals computed using PRISM.
 NBasis=    75 RedAO= T EigKep=  1.54D-01  NBF=    75
 NBsUse=    75 1.00D-06 EigRej= -1.00D+00 NBFU=    75
 ExpMin= 1.69D-01 ExpMax= 9.91D+01 ExpMxC= 9.91D+01 IAcc=1 IRadAn=         1 AccDes= 0.00D+00
 Harris functional with IExCor=  402 and IRadAn=       1 diagonalized for initial guess.
 HarFok:  IExCor=  402 AccDes= 0.00D+00 IRadAn=         1 IDoV= 1 UseB2=F ITyADJ=14
 ICtDFT=  3500011 ScaDFX=  1.000000  1.000000  1.000000  1.000000
 FoFCou: FMM=F IPFlag=           0 FMFlag=      100000 FMFlg1=           0
         NFxFlg=           0 DoJE=T BraDBF=F KetDBF=T FulRan=T
         wScrn=  0.000000 ICntrl=     500 IOpCl=  0 I1Cent=   200000004 NGrid=           0
         NMat0=    1 NMatS0=      1 NMatT0=    0 NMatD0=    1 NMtDS0=    0 NMtDT0=    0
 Petite list used in FoFCou.
 Keep R1 ints in memory in canonical form, NReq=4993994.
 Requested convergence on RMS density matrix=1.00D-08 within 128 cycles.
 Requested convergence on MAX density matrix=1.00D-06.
 Requested convergence on             energy=1.00D-06.
 No special actions if energy rises.
 Integral accuracy reduced to 1.0D-05 until final iterations.
 EnCoef did     2 forward-backward iterations
 Initial convergence to 1.0D-05 achieved.  Increase integral accuracy.
 SCF Done:  E(RB3LYP) =  -562.471162490     A.U. after   28 cycles
            NFock= 28  Conv=0.64D-08     -V/T= 2.0130

 **********************************************************************

            Population analysis using the SCF density.

 **********************************************************************

 Orbital symmetries:
       Occupied  (A) (A) (A) (A) (A) (A) (A) (A) (A) (A) (A) (A)
                 (A) (A) (A) (A) (A) (A) (A) (A) (A) (A) (A) (A)
                 (A) (A) (A) (A) (A) (A) (A) (A) (A) (A) (A) (A)
                 (A) (A) (A) (A) (A) (A) (A) (A) (A) (A)
       Virtual   (A) (A) (A) (A) (A) (A) (A) (A) (A) (A) (A) (A)
                 (A) (A) (A) (A) (A) (A) (A) (A) (A) (A) (A) (A)
                 (A) (A) (A) (A) (A)
 The electronic state is 1-A.
 Alpha  occ. eigenvalues --  -13.98544 -13.96922  -9.89995  -9.89337  -9.89247
 Alpha  occ. eigenvalues --   -9.87803  -9.87423  -9.85972  -9.85729  -9.83944
 Alpha  occ. eigenvalues --   -9.83695  -9.82602  -9.79860  -9.67348  -0.73869
 Alpha  occ. eigenvalues --   -0.71927  -0.68070  -0.62522  -0.58385  -0.55545
 Alpha  occ. eigenvalues --   -0.50407  -0.46334  -0.42520  -0.39948  -0.34752
 Alpha  occ. eigenvalues --   -0.32538  -0.30881  -0.27548  -0.25526  -0.23574
 Alpha  occ. eigenvalues --   -0.21881  -0.20114  -0.19156  -0.17153  -0.16765
 Alpha  occ. eigenvalues --   -0.15322  -0.14753  -0.14443  -0.13053  -0.12423
 Alpha  occ. eigenvalues --   -0.11176  -0.10885  -0.06248  -0.03870   0.02226
 Alpha  occ. eigenvalues --    0.13490
 Alpha virt. eigenvalues --    0.16674   0.21606   0.27900   0.28071   0.29965
 Alpha virt. eigenvalues --    0.31908   0.34353   0.40111   0.44653   0.48934
 Alpha virt. eigenvalues --    0.49868   0.53010   0.54751   0.58168   0.61339
 Alpha virt. eigenvalues --    0.62922   0.64839   0.64994   0.70443   0.73658
 Alpha virt. eigenvalues --    0.74083   0.78910   0.83452   0.87057   0.87383
 Alpha virt. eigenvalues --    0.99000   1.00135   1.13222   1.17966
          Condensed to atoms (all electrons):
               1          2          3          4          5          6
     1  N    6.573282   0.685263  -0.010689  -0.000156  -0.000001   0.000000
     2  C    0.685263   4.873647   0.428309  -0.032249   0.000957   0.000019
     3  C   -0.010689   0.428309   4.778609   0.486134  -0.030249  -0.010045
     4  C   -0.000156  -0.032249   0.486134   4.771194   0.483984  -0.030662
     5  C   -0.000001   0.000957  -0.030249   0.483984   4.824904   0.520867
     6  C    0.000000   0.000019  -0.010045  -0.030662   0.520867   4.845976
     7  C   -0.000002   0.001045  -0.034605  -0.009336  -0.029911   0.471342
     8  C   -0.000087  -0.029092   0.466799  -0.028855  -0.010104  -0.027918
     9  C   -0.000383   0.000437  -0.036078   0.000849   0.000041   0.001170
    10  C    0.000001   0.000003   0.001148  -0.000012   0.000001   0.000055
    11  C    0.000000   0.000001  -0.000013   0.000001  -0.000011   0.001003
    12  C    0.000000  -0.000006   0.000924   0.000044   0.000972  -0.035134
    13  N   -0.000012  -0.000023  -0.000064  -0.011539  -0.000241  -0.000001
    14  C   -0.000018  -0.003054  -0.029121   0.431039  -0.033282   0.001037
    15  H    0.000000  -0.000020   0.001345  -0.025463   0.390471  -0.026082
    16  H    0.000000   0.000001   0.000012   0.001497  -0.027512   0.388011
    17  H    0.000000  -0.000003  -0.000005   0.000000   0.000000   0.000002
    18  H    0.000000   0.000000   0.000001   0.000000   0.000000  -0.000018
    19  H    0.000000   0.000000  -0.000022  -0.000001   0.000027  -0.004534
               7          8          9         10         11         12
     1  N   -0.000002  -0.000087  -0.000383   0.000001   0.000000   0.000000
     2  C    0.001045  -0.029092   0.000437   0.000003   0.000001  -0.000006
     3  C   -0.034605   0.466799  -0.036078   0.001148  -0.000013   0.000924
     4  C   -0.009336  -0.028855   0.000849  -0.000012   0.000001   0.000044
     5  C   -0.029911  -0.010104   0.000041   0.000001  -0.000011   0.000972
     6  C    0.471342  -0.027918   0.001170   0.000055   0.001003  -0.035134
     7  C    4.797974   0.451659  -0.031426  -0.012132  -0.027974   0.493291
     8  C    0.451659   4.823183   0.457469  -0.027718  -0.011095  -0.031565
     9  C   -0.031426   0.457469   5.373105   0.495551  -0.028963  -0.013813
    10  C   -0.012132  -0.027718   0.495551   4.874703   0.482965  -0.033497
    11  C   -0.027974  -0.011095  -0.028963   0.482965   4.846854   0.515384
    12  C    0.493291  -0.031565  -0.013813  -0.033497   0.515384   4.865827
    13  N    0.000000  -0.000001   0.000000   0.000000   0.000000   0.000000
    14  C    0.000012   0.000884  -0.000007   0.000000   0.000000   0.000000
    15  H    0.001491   0.000040   0.000001   0.000000   0.000000  -0.000022
    16  H   -0.025312   0.001421  -0.000031  -0.000003   0.000025  -0.004241
    17  H   -0.000028   0.001858  -0.034028   0.387513  -0.032879   0.001455
    18  H    0.001465   0.000068   0.001682  -0.025981   0.382539  -0.027395
    19  H   -0.026019   0.001322   0.000045   0.001506  -0.027769   0.390189
              13         14         15         16         17         18
     1  N   -0.000012  -0.000018   0.000000   0.000000   0.000000   0.000000
     2  C   -0.000023  -0.003054  -0.000020   0.000001  -0.000003   0.000000
     3  C   -0.000064  -0.029121   0.001345   0.000012  -0.000005   0.000001
     4  C   -0.011539   0.431039  -0.025463   0.001497   0.000000   0.000000
     5  C   -0.000241  -0.033282   0.390471  -0.027512   0.000000   0.000000
     6  C   -0.000001   0.001037  -0.026082   0.388011   0.000002  -0.000018
     7  C    0.000000   0.000012   0.001491  -0.025312  -0.000028   0.001465
     8  C   -0.000001   0.000884   0.000040   0.001421   0.001858   0.000068
     9  C    0.000000  -0.000007   0.000001  -0.000031  -0.034028   0.001682
    10  C    0.000000   0.000000   0.000000  -0.000003   0.387513  -0.025981
    11  C    0.000000   0.000000   0.000000   0.000025  -0.032879   0.382539
    12  C    0.000000   0.000000  -0.000022  -0.004241   0.001455  -0.027395
    13  N    6.578010   0.685969   0.000052   0.000000   0.000000   0.000000
    14  C    0.685969   4.893040  -0.003983  -0.000022   0.000000   0.000000
    15  H    0.000052  -0.003983   0.605572  -0.004143   0.000000   0.000000
    16  H    0.000000  -0.000022  -0.004143   0.617640   0.000000  -0.000003
    17  H    0.000000   0.000000   0.000000   0.000000   0.651385  -0.003124
    18  H    0.000000   0.000000   0.000000  -0.000003  -0.003124   0.637975
    19  H    0.000000   0.000000  -0.000002   0.000978  -0.000043  -0.004080
              19
     1  N    0.000000
     2  C    0.000000
     3  C   -0.000022
     4  C   -0.000001
     5  C    0.000027
     6  C   -0.004534
     7  C   -0.026019
     8  C    0.001322
     9  C    0.000045
    10  C    0.001506
    11  C   -0.027769
    12  C    0.390189
    13  N    0.000000
    14  C    0.000000
    15  H   -0.000002
    16  H    0.000978
    17  H   -0.000043
    18  H   -0.004080
    19  H    0.631652
 Mulliken charges:
               1
     1  N   -0.247198
     2  C    0.074766
     3  C   -0.012389
     4  C   -0.036470
     5  C   -0.090911
     6  C   -0.095089
     7  C   -0.021534
     8  C   -0.038267
     9  C   -0.185623
    10  C   -0.144103
    11  C   -0.100067
    12  C   -0.122414
    13  N   -0.252150
    14  C    0.057505
    15  H    0.060743
    16  H    0.051683
    17  H    0.027899
    18  H    0.036870
    19  H    0.036749
 Sum of Mulliken charges =  -1.00000
 Mulliken charges with hydrogens summed into heavy atoms:
               1
     1  N   -0.247198
     2  C    0.074766
     3  C   -0.012389
     4  C   -0.036470
     5  C   -0.030168
     6  C   -0.043405
     7  C   -0.021534
     8  C   -0.038267
     9  C   -0.185623
    10  C   -0.116204
    11  C   -0.063197
    12  C   -0.085665
    13  N   -0.252150
    14  C    0.057505
 Electronic spatial extent (au):  <R**2>=           2584.6205
 Charge=             -1.0000 electrons
 Dipole moment (field-independent basis, Debye):
    X=             -2.0967    Y=             -5.3099    Z=              0.2654  Tot=              5.7151
 Quadrupole moment (field-independent basis, Debye-Ang):
   XX=           -111.5749   YY=            -91.7600   ZZ=            -74.0704
   XY=             -0.8508   XZ=             -0.1510   YZ=              0.3739
 Traceless Quadrupole moment (field-independent basis, Debye-Ang):
   XX=            -19.1065   YY=              0.7085   ZZ=             18.3980
   XY=             -0.8508   XZ=             -0.1510   YZ=              0.3739
 Octapole moment (field-independent basis, Debye-Ang**2):
  XXX=            -84.7986  YYY=            -55.2201  ZZZ=              0.1568  XYY=            -11.0342
  XXY=             -9.8409  XXZ=              0.0303  XZZ=              6.9069  YZZ=              2.9423
  YYZ=              0.9467  XYZ=             -0.4206
 Hexadecapole moment (field-independent basis, Debye-Ang**3):
 XXXX=          -2877.5247 YYYY=          -1111.5716 ZZZZ=            -58.2658 XXXY=             43.1855
 XXXZ=              0.6419 YYYX=            -60.6179 YYYZ=              1.8563 ZZZX=             -0.1160
 ZZZY=              0.2347 XXYY=           -601.3908 XXZZ=           -394.7386 YYZZ=           -174.5387
 XXYZ=              0.6632 YYXZ=             -1.3315 ZZXY=              2.9249
 N-N= 7.157602578366D+02 E-N=-2.753927747485D+03  KE= 5.552706806418D+02
 Calling FoFJK, ICntrl=      2127 FMM=F ISym2X=0 I1Cent= 0 IOpClX= 0 NMat=1 NMatS=1 NMatT=0.
 ***** Axes restored to original set *****
 -------------------------------------------------------------------
 Center     Atomic                   Forces (Hartrees/Bohr)
 Number     Number              X              Y              Z
 -------------------------------------------------------------------
      1        7          -0.111800897   -0.000977752   -0.001995474
      2        6           0.096260991   -0.002597562    0.004713725
      3        6          -0.010672983    0.008372835   -0.004112936
      4        6          -0.011947522    0.013700615    0.002009014
      5        6           0.036595515   -0.010817096   -0.002122262
      6        6           0.009447396    0.043885599    0.000948213
      7        6           0.023466008   -0.000080722   -0.009936235
      8        6           0.007091357   -0.033133106    0.005223405
      9        6          -0.071708217   -0.020968339   -0.010101640
     10        6          -0.011608292    0.025456677    0.011873726
     11        6           0.021080917   -0.002921710    0.004992987
     12        6           0.013089375   -0.024908503   -0.001144248
     13        7          -0.050299013    0.095802852   -0.000546410
     14        6           0.039395785   -0.080914639    0.001869835
     15        1          -0.000001240    0.007010888    0.000075323
     16        1           0.007658097   -0.000222361    0.004155358
     17        1          -0.002311445   -0.013498613   -0.001466480
     18        1           0.010245763   -0.007885755   -0.003719878
     19        1           0.006018405    0.004696693   -0.000716024
 -------------------------------------------------------------------
 Cartesian Forces:  Max     0.111800897 RMS     0.031310795

 GradGradGradGradGradGradGradGradGradGradGradGradGradGradGradGradGradGrad
 Berny optimization.
 FormGI is forming the generalized inverse of G from B-inverse, IUseBI=4.
 Internal  Forces:  Max     0.111796986 RMS     0.021075406
 Search for a local minimum.
 Step number   1 out of a maximum of  102
 All quantities printed in internal units (Hartrees-Bohrs-Radians)
 Mixed Optimization -- RFO/linear search
 Second derivative matrix not updated -- first step.
 ITU=  0
     Eigenvalues ---    0.01568   0.01568   0.01911   0.01921   0.01945
     Eigenvalues ---    0.02004   0.02028   0.02051   0.02089   0.02097
     Eigenvalues ---    0.02119   0.02121   0.02140   0.02182   0.02188
     Eigenvalues ---    0.02208   0.04869   0.04869   0.16000   0.16000
     Eigenvalues ---    0.16000   0.16000   0.16000   0.22080   0.22503
     Eigenvalues ---    0.23399   0.24505   0.24910   0.25000   0.25000
     Eigenvalues ---    0.25000   0.34841   0.34914   0.34949   0.35112
     Eigenvalues ---    0.35198   0.38329   0.39672   0.40127   0.40678
     Eigenvalues ---    0.41927   0.43081   0.44150   0.44894   0.45262
     Eigenvalues ---    0.45790   0.45975   0.46194   0.46946   1.27940
     Eigenvalues ---    1.28211
 RFO step:  Lambda=-5.84712927D-02 EMin= 1.56796971D-02
 Linear search not attempted -- first point.
 Maximum step size (   0.300) exceeded in Quadratic search.
    -- Step size scaled by   0.893
 Iteration  1 RMS(Cart)=  0.04893878 RMS(Int)=  0.00118562
 Iteration  2 RMS(Cart)=  0.00196865 RMS(Int)=  0.00053230
 Iteration  3 RMS(Cart)=  0.00000151 RMS(Int)=  0.00053229
 Iteration  4 RMS(Cart)=  0.00000000 RMS(Int)=  0.00053229
 Variable       Old X    -DE/DX   Delta X   Delta X   Delta X     New X
                                 (Linear)    (Quad)   (Total)
    R1        2.19088   0.11180   0.00000   0.07443   0.07443   2.26531
    R2        2.72001   0.01564   0.00000   0.03067   0.03067   2.75068
    R3        2.65650   0.02875   0.00000   0.05034   0.05037   2.70687
    R4        2.67874   0.03290   0.00000   0.06180   0.06195   2.74069
    R5        2.64478   0.03570   0.00000   0.05999   0.05987   2.70465
    R6        2.71381   0.01833   0.00000   0.03559   0.03559   2.74940
    R7        2.63407  -0.00119   0.00000  -0.00339  -0.00354   2.63053
    R8        2.05933   0.00613   0.00000   0.01346   0.01346   2.07279
    R9        2.64462   0.04621   0.00000   0.08040   0.08037   2.72498
   R10        2.05815   0.00764   0.00000   0.01672   0.01672   2.07486
   R11        2.67597   0.04930   0.00000   0.09377   0.09380   2.76976
   R12        2.65300   0.02158   0.00000   0.03845   0.03819   2.69119
   R13        2.65867   0.03535   0.00000   0.06386   0.06403   2.72270
   R14        2.63388   0.01421   0.00000   0.02360   0.02387   2.65775
   R15        2.62644   0.04278   0.00000   0.07006   0.07016   2.69659
   R16        2.05354   0.01304   0.00000   0.02835   0.02835   2.08190
   R17        2.63515   0.00616   0.00000   0.00931   0.00914   2.64429
   R18        2.05493   0.01221   0.00000   0.02660   0.02660   2.08153
   R19        2.05757   0.00617   0.00000   0.01349   0.01349   2.07106
   R20        2.19166   0.10820   0.00000   0.07219   0.07219   2.26385
    A1        2.09374  -0.00033   0.00000  -0.00207  -0.00223   2.09151
    A2        2.09514  -0.00566   0.00000  -0.01747  -0.01764   2.07750
    A3        2.09431   0.00599   0.00000   0.01954   0.01966   2.11397
    A4        2.09212   0.00090   0.00000  -0.00071  -0.00081   2.09130
    A5        2.13082  -0.00338   0.00000  -0.00812  -0.00808   2.12274
    A6        2.06025   0.00248   0.00000   0.00883   0.00887   2.06912
    A7        2.10092   0.00349   0.00000   0.00573   0.00540   2.10632
    A8        2.10401  -0.00524   0.00000  -0.01716  -0.01705   2.08696
    A9        2.07826   0.00175   0.00000   0.01143   0.01154   2.08980
   A10        2.10665   0.00193   0.00000   0.00495   0.00468   2.11134
   A11        2.07546  -0.00032   0.00000   0.00017   0.00019   2.07566
   A12        2.10107  -0.00161   0.00000  -0.00511  -0.00507   2.09600
   A13        2.08796   0.00174   0.00000   0.00752   0.00773   2.09569
   A14        2.10134   0.00807   0.00000   0.01922   0.01925   2.12060
   A15        2.09388  -0.00981   0.00000  -0.02674  -0.02734   2.06654
   A16        2.08441  -0.01405   0.00000  -0.03704  -0.03677   2.04765
   A17        2.14257  -0.01301   0.00000  -0.04321  -0.04335   2.09922
   A18        2.05620   0.02706   0.00000   0.08025   0.08010   2.13630
   A19        2.12657  -0.03965   0.00000  -0.11339  -0.11265   2.01392
   A20        2.09066   0.02181   0.00000   0.06527   0.06522   2.15587
   A21        2.09156  -0.00661   0.00000  -0.01507  -0.01557   2.07599
   A22        2.10097  -0.01521   0.00000  -0.05021  -0.05061   2.05037
   A23        2.08984   0.00636   0.00000   0.01454   0.01428   2.10412
   A24        2.09943   0.00121   0.00000   0.01065   0.01066   2.11009
   A25        2.09391  -0.00756   0.00000  -0.02519  -0.02512   2.06878
   A26        2.10921  -0.00578   0.00000  -0.01993  -0.02055   2.08866
   A27        2.10267  -0.00175   0.00000  -0.00898  -0.00871   2.09396
   A28        2.07131   0.00753   0.00000   0.02891   0.02918   2.10049
   A29        3.13372  -0.00317   0.00000  -0.03810  -0.03810   3.09562
   A30        3.17593  -0.00010   0.00000  -0.00086  -0.00086   3.17507
   A31        3.14140   0.00418   0.00000   0.05033   0.05033   3.19173
   A32        3.14188   0.00112   0.00000   0.00932   0.00932   3.15120
    D1        3.14126  -0.00115   0.00000  -0.01319  -0.01290   3.12836
    D2        0.00019  -0.00049   0.00000  -0.00567  -0.00556  -0.00537
    D3       -0.00012   0.00078   0.00000   0.00894   0.00908   0.00896
    D4       -3.14119   0.00145   0.00000   0.01647   0.01642  -3.12476
    D5       -3.14150   0.00083   0.00000   0.00943   0.00926  -3.13225
    D6        0.00010   0.00022   0.00000   0.00250   0.00307   0.00317
    D7       -0.00012  -0.00111   0.00000  -0.01272  -0.01255  -0.01268
    D8        3.14148  -0.00172   0.00000  -0.01965  -0.01875   3.12274
    D9        0.00010  -0.00058   0.00000  -0.00659  -0.00665  -0.00655
   D10       -3.14122   0.00074   0.00000   0.00839   0.00830  -3.13293
   D11        3.14119  -0.00122   0.00000  -0.01382  -0.01377   3.12742
   D12       -0.00013   0.00011   0.00000   0.00116   0.00118   0.00104
   D13        0.00017   0.00073   0.00000   0.00815   0.00820   0.00837
   D14        3.14123   0.00263   0.00000   0.02950   0.02982  -3.11214
   D15        3.14150  -0.00058   0.00000  -0.00661  -0.00678   3.13471
   D16       -0.00063   0.00132   0.00000   0.01474   0.01484   0.01421
   D17       -0.00041  -0.00106   0.00000  -0.01195  -0.01201  -0.01242
   D18        3.14106   0.00143   0.00000   0.01642   0.01731  -3.12481
   D19       -3.14146  -0.00299   0.00000  -0.03361  -0.03388   3.10784
   D20        0.00001  -0.00050   0.00000  -0.00524  -0.00456  -0.00455
   D21        0.00039   0.00124   0.00000   0.01414   0.01385   0.01423
   D22       -3.14122   0.00181   0.00000   0.02074   0.02018  -3.12104
   D23       -3.14108  -0.00124   0.00000  -0.01410  -0.01458   3.12753
   D24        0.00050  -0.00066   0.00000  -0.00751  -0.00825  -0.00775
   D25        3.14122  -0.00398   0.00000  -0.04520  -0.04623   3.09499
   D26        0.00007  -0.00296   0.00000  -0.03362  -0.03366  -0.03359
   D27       -0.00050  -0.00149   0.00000  -0.01673  -0.01738  -0.01788
   D28        3.14154  -0.00047   0.00000  -0.00516  -0.00481   3.13672
   D29        3.14141   0.00412   0.00000   0.04642   0.04526  -3.09651
   D30       -0.00017   0.00353   0.00000   0.03959   0.03875   0.03858
   D31       -0.00018  -0.00422   0.00000  -0.04723  -0.04651  -0.04669
   D32       -3.14151  -0.00002   0.00000  -0.00054   0.00151  -3.14000
   D33        0.00019   0.00195   0.00000   0.02168   0.02329   0.02348
   D34       -3.14137   0.00387   0.00000   0.04301   0.04433  -3.09704
   D35        3.14152  -0.00227   0.00000  -0.02526  -0.02407   3.11745
   D36       -0.00004  -0.00035   0.00000  -0.00393  -0.00303  -0.00307
   D37        0.00015   0.00087   0.00000   0.00982   0.01086   0.01100
   D38        3.14131  -0.00014   0.00000  -0.00157  -0.00177   3.13953
   D39       -3.14148  -0.00104   0.00000  -0.01145  -0.00969   3.13202
   D40       -0.00032  -0.00205   0.00000  -0.02283  -0.02232  -0.02264
         Item               Value     Threshold  Converged?
 Maximum Force            0.111797     0.000450     NO 
 RMS     Force            0.021075     0.000300     NO 
 Maximum Displacement     0.185900     0.001800     NO 
 RMS     Displacement     0.048627     0.001200     NO 
 Predicted change in Energy=-3.205395D-02
 GradGradGradGradGradGradGradGradGradGradGradGradGradGradGradGradGradGrad

                          Input orientation:                          
 ---------------------------------------------------------------------
 Center     Atomic      Atomic             Coordinates (Angstroms)
 Number     Number       Type             X           Y           Z
 ---------------------------------------------------------------------
      1          7           0        1.122184   -0.098668   -0.100566
      2          6           0        2.320029   -0.116480   -0.057522
      3          6           0        3.774791   -0.070656   -0.075736
      4          6           0        4.448202    1.193495   -0.059829
      5          6           0        5.878749    1.237991   -0.061314
      6          6           0        6.625947    0.063545   -0.070243
      7          6           0        5.981093   -1.226103   -0.088560
      8          6           0        4.518168   -1.315947   -0.082320
      9          6           0        3.822176   -2.577461   -0.074886
     10          6           0        4.642742   -3.718600   -0.025011
     11          6           0        6.068645   -3.665161   -0.039332
     12          6           0        6.734092   -2.434810   -0.077469
     13          7           0        3.143491    3.502583   -0.020019
     14          6           0        3.713461    2.448956   -0.032248
     15          1           0        6.390220    2.208097   -0.040832
     16          1           0        7.721508    0.130893   -0.042855
     17          1           0        4.171426   -4.714363   -0.018361
     18          1           0        6.669313   -4.588464   -0.040608
     19          1           0        7.829385   -2.397696   -0.086419
 ---------------------------------------------------------------------
                    Distance matrix (angstroms):
                    1          2          3          4          5
     1  N    0.000000
     2  C    1.198751   0.000000
     3  C    2.652871   1.455598   0.000000
     4  C    3.568437   2.499032   1.432416   0.000000
     5  C    4.940963   3.807768   2.477782   1.431239   0.000000
     6  C    5.506237   4.309699   2.854318   2.453461   1.392016
     7  C    4.988011   3.825653   2.490581   2.864443   2.466369
     8  C    3.607604   2.504227   1.450311   2.510518   2.893825
     9  C    3.665383   2.883257   2.507253   3.822596   4.334437
    10  C    5.050143   4.286178   3.750121   4.916070   5.108505
    11  C    6.098450   5.161936   4.264218   5.121796   4.906877
    12  C    6.078784   4.985881   3.787703   4.288380   3.771119
    13  N    4.130518   3.711754   3.629006   2.652498   3.551298
    14  C    3.634525   2.919547   2.520734   1.454918   2.481079
    15  H    5.751256   4.687259   3.469064   2.191167   1.096872
    16  H    6.603568   5.407161   3.951997   3.441504   2.149830
    17  H    5.532566   4.956787   4.660969   5.914484   6.192521
    18  H    7.136701   6.238205   5.365639   6.193929   5.879881
    19  H    7.090295   5.963035   4.674929   4.932521   4.125995
                    6          7          8          9         10
     6  C    0.000000
     7  C    1.442000   0.000000
     8  C    2.519102   1.465695   0.000000
     9  C    3.851761   2.547014   1.440790   0.000000
    10  C    4.270804   2.829800   2.406563   1.406419   0.000000
    11  C    3.770250   2.441125   2.815072   2.496193   1.426976
    12  C    2.500705   1.424115   2.482378   2.915409   2.454509
    13  N    4.894590   5.515175   5.011173   6.118052   7.375179
    14  C    3.764865   4.318725   3.850267   5.027773   6.237176
    15  H    2.157669   3.458814   3.990637   5.431167   6.178970
    16  H    1.097971   2.207390   3.515152   4.747736   4.929272
    17  H    5.371757   3.930367   3.416658   2.165993   1.101693
    18  H    4.652305   3.432407   3.916444   3.485900   2.205425
    19  H    2.739750   2.188337   3.483441   4.011256   3.450110
                   11         12         13         14         15
    11  C    0.000000
    12  C    1.399299   0.000000
    13  N    7.741670   6.938902   0.000000
    14  C    6.552050   5.742598   1.197976   0.000000
    15  H    5.882055   4.655768   3.495337   2.687587   0.000000
    16  H    4.140289   2.749367   5.685689   4.630116   2.467207
    17  H    2.168111   3.430322   8.280994   7.177957   7.269389
    18  H    1.101496   2.154943   8.825922   7.632982   6.802289
    19  H    2.169998   1.095958   7.534939   6.358758   4.825619
                   16         17         18         19
    16  H    0.000000
    17  H    6.006679   0.000000
    18  H    4.835230   2.501157   0.000000
    19  H    2.531264   4.330386   2.479381   0.000000
 Stoichiometry    C12H5N2(1-)
 Framework group  C1[X(C12H5N2)]
 Deg. of freedom    51
 Full point group                 C1      NOp   1
 Largest Abelian subgroup         C1      NOp   1
 Largest concise Abelian subgroup C1      NOp   1
                         Standard orientation:                         
 ---------------------------------------------------------------------
 Center     Atomic      Atomic             Coordinates (Angstroms)
 Number     Number       Type             X           Y           Z
 ---------------------------------------------------------------------
      1          7           0        1.878834    2.893668   -0.034872
      2          6           0        1.335718    1.825800    0.006187
      3          6           0        0.736588    0.499386   -0.014596
      4          6           0        1.575374   -0.661698   -0.002820
      5          6           0        0.985732   -1.965827   -0.006830
      6          6           0       -0.397715   -2.119868   -0.014243
      7          6           0       -1.271966   -0.973200   -0.028416
      8          6           0       -0.708788    0.379949   -0.019489
      9          6           0       -1.535235    1.560088   -0.007892
     10          6           0       -2.920983    1.325358    0.043296
     11          6           0       -3.500568    0.021495    0.026436
     12          6           0       -2.688703   -1.117423   -0.015738
     13          7           0        4.223074   -0.506481    0.033731
     14          6           0        3.026110   -0.554545    0.023032
     15          1           0        1.631758   -2.852099    0.010491
     16          1           0       -0.819368   -3.133330    0.011133
     17          1           0       -3.607684    2.186794    0.053100
     18          1           0       -4.594003   -0.111519    0.026330
     19          1           0       -3.137436   -2.117245   -0.026628
 ---------------------------------------------------------------------
 Rotational constants (GHZ):      1.3342163      0.5508913      0.3899619
 Standard basis: STO-3G (5D, 7F)
 There are    75 symmetry adapted cartesian basis functions of A   symmetry.
 There are    75 symmetry adapted basis functions of A   symmetry.
    75 basis functions,   225 primitive gaussians,    75 cartesian basis functions
    46 alpha electrons       46 beta electrons
       nuclear repulsion energy       703.6473331800 Hartrees.
 NAtoms=   19 NActive=   19 NUniq=   19 SFac= 1.00D+00 NAtFMM=   60 NAOKFM=F Big=F
 Integral buffers will be    131072 words long.
 Raffenetti 2 integral format.
 Two-electron integral symmetry is turned on.
 One-electron integrals computed using PRISM.
 NBasis=    75 RedAO= T EigKep=  1.74D-01  NBF=    75
 NBsUse=    75 1.00D-06 EigRej= -1.00D+00 NBFU=    75
 Initial guess from the checkpoint file:  "/tmp/bnp.472674.sequoia/Gau-27182.chk"
 B after Tr=     0.000000    0.000000    0.000000
         Rot=    0.999996    0.000029   -0.000019    0.002819 Ang=   0.32 deg.
 ExpMin= 1.69D-01 ExpMax= 9.91D+01 ExpMxC= 9.91D+01 IAcc=1 IRadAn=         1 AccDes= 0.00D+00
 Harris functional with IExCor=  402 and IRadAn=       1 diagonalized for initial guess.
 HarFok:  IExCor=  402 AccDes= 0.00D+00 IRadAn=         1 IDoV= 1 UseB2=F ITyADJ=14
 ICtDFT=  3500011 ScaDFX=  1.000000  1.000000  1.000000  1.000000
 FoFCou: FMM=F IPFlag=           0 FMFlag=      100000 FMFlg1=           0
         NFxFlg=           0 DoJE=T BraDBF=F KetDBF=T FulRan=T
         wScrn=  0.000000 ICntrl=     500 IOpCl=  0 I1Cent=   200000004 NGrid=           0
         NMat0=    1 NMatS0=      1 NMatT0=    0 NMatD0=    1 NMtDS0=    0 NMtDT0=    0
 Petite list used in FoFCou.
 Keep R1 ints in memory in canonical form, NReq=4993994.
 Requested convergence on RMS density matrix=1.00D-08 within 128 cycles.
 Requested convergence on MAX density matrix=1.00D-06.
 Requested convergence on             energy=1.00D-06.
 No special actions if energy rises.
 Integral accuracy reduced to 1.0D-05 until final iterations.
 Initial convergence to 1.0D-05 achieved.  Increase integral accuracy.
 SCF Done:  E(RB3LYP) =  -562.501406507     A.U. after   19 cycles
            NFock= 19  Conv=0.56D-08     -V/T= 2.0141
 Calling FoFJK, ICntrl=      2127 FMM=F ISym2X=0 I1Cent= 0 IOpClX= 0 NMat=1 NMatS=1 NMatT=0.
 ***** Axes restored to original set *****
 -------------------------------------------------------------------
 Center     Atomic                   Forces (Hartrees/Bohr)
 Number     Number              X              Y              Z
 -------------------------------------------------------------------
      1        7          -0.007318454    0.000529750    0.000211026
      2        6           0.002283748   -0.002505761   -0.000357686
      3        6           0.010044090    0.005522386   -0.000984120
      4        6          -0.007363450   -0.000783378    0.001203766
      5        6           0.010554178   -0.007580140   -0.000649113
      6        6          -0.005950888    0.008268520    0.000499249
      7        6           0.005265619    0.007234762   -0.004327312
      8        6           0.016281925   -0.005090786    0.002917616
      9        6          -0.035045562   -0.004477217   -0.004451040
     10        6           0.009557105    0.008673941    0.003665804
     11        6           0.000072498   -0.001804242    0.001885727
     12        6           0.000083460   -0.006662330    0.000137885
     13        7          -0.003435504    0.006289108    0.000156879
     14        6           0.001857409   -0.005587427    0.000110085
     15        1          -0.001695586    0.001707701    0.000038357
     16        1           0.001144036   -0.001561170    0.001613842
     17        1           0.002254272   -0.003195006    0.000556722
     18        1           0.000643799   -0.000763406   -0.001562766
     19        1           0.000767306    0.001784694   -0.000664920
 -------------------------------------------------------------------
 Cartesian Forces:  Max     0.035045562 RMS     0.006683990

 GradGradGradGradGradGradGradGradGradGradGradGradGradGradGradGradGradGrad
 Berny optimization.
 Using GEDIIS/GDIIS optimizer.
 FormGI is forming the generalized inverse of G from B-inverse, IUseBI=4.
 Internal  Forces:  Max     0.020502946 RMS     0.004049894
 Search for a local minimum.
 Step number   2 out of a maximum of  102
 All quantities printed in internal units (Hartrees-Bohrs-Radians)
 Mixed Optimization -- RFO/linear search
 Update second derivatives using D2CorX and points    1    2
 DE= -3.02D-02 DEPred=-3.21D-02 R= 9.44D-01
 TightC=F SS=  1.41D+00  RLast= 3.29D-01 DXNew= 5.0454D-01 9.8616D-01
 Trust test= 9.44D-01 RLast= 3.29D-01 DXMaxT set to 5.05D-01
 ITU=  1  0
 Use linear search instead of GDIIS.
     Eigenvalues ---    0.01567   0.01586   0.01911   0.01924   0.01947
     Eigenvalues ---    0.02018   0.02031   0.02052   0.02098   0.02104
     Eigenvalues ---    0.02120   0.02128   0.02144   0.02186   0.02203
     Eigenvalues ---    0.02222   0.04869   0.04871   0.15819   0.15994
     Eigenvalues ---    0.15996   0.15998   0.16042   0.21222   0.22138
     Eigenvalues ---    0.22569   0.23951   0.24521   0.24993   0.24996
     Eigenvalues ---    0.24999   0.34847   0.34920   0.34955   0.35143
     Eigenvalues ---    0.35237   0.38576   0.39534   0.40185   0.40857
     Eigenvalues ---    0.41697   0.43126   0.44011   0.44947   0.45323
     Eigenvalues ---    0.45880   0.46138   0.46664   0.51302   1.28068
     Eigenvalues ---    1.34872
 RFO step:  Lambda=-5.68481378D-03 EMin= 1.56741492D-02
 Quartic linear search produced a step of  0.25602.
 Iteration  1 RMS(Cart)=  0.04497016 RMS(Int)=  0.00182076
 Iteration  2 RMS(Cart)=  0.00287890 RMS(Int)=  0.00077711
 Iteration  3 RMS(Cart)=  0.00000402 RMS(Int)=  0.00077710
 Iteration  4 RMS(Cart)=  0.00000000 RMS(Int)=  0.00077710
 Variable       Old X    -DE/DX   Delta X   Delta X   Delta X     New X
                                 (Linear)    (Quad)   (Total)
    R1        2.26531   0.00731   0.01906  -0.00993   0.00912   2.27443
    R2        2.75068   0.00510   0.00785   0.00863   0.01648   2.76716
    R3        2.70687  -0.00376   0.01290  -0.02230  -0.00940   2.69748
    R4        2.74069   0.00056   0.01586  -0.01262   0.00326   2.74395
    R5        2.70465   0.00500   0.01533  -0.00084   0.01450   2.71915
    R6        2.74940   0.00141   0.00911  -0.00404   0.00508   2.75447
    R7        2.63053  -0.00519  -0.00091  -0.01318  -0.01410   2.61643
    R8        2.07279   0.00072   0.00344  -0.00063   0.00281   2.07560
    R9        2.72498   0.00222   0.02058  -0.01270   0.00787   2.73285
   R10        2.07486   0.00109   0.00428  -0.00012   0.00416   2.07902
   R11        2.76976   0.00349   0.02401  -0.01058   0.01340   2.78316
   R12        2.69119   0.00109   0.00978  -0.00621   0.00340   2.69459
   R13        2.72270   0.01368   0.01639   0.02422   0.04073   2.76343
   R14        2.65775   0.00859   0.00611   0.01738   0.02368   2.68142
   R15        2.69659   0.00263   0.01796  -0.01043   0.00756   2.70415
   R16        2.08190   0.00193   0.00726   0.00004   0.00730   2.08920
   R17        2.64429  -0.00145   0.00234  -0.00715  -0.00496   2.63933
   R18        2.08153   0.00099   0.00681  -0.00280   0.00401   2.08554
   R19        2.07106   0.00083   0.00345  -0.00025   0.00321   2.07427
   R20        2.26385   0.00717   0.01848  -0.00955   0.00893   2.27278
    A1        2.09151  -0.00034  -0.00057  -0.00154  -0.00229   2.08922
    A2        2.07750  -0.00441  -0.00452  -0.01776  -0.02248   2.05502
    A3        2.11397   0.00473   0.00503   0.01872   0.02355   2.13752
    A4        2.09130  -0.00187  -0.00021  -0.00960  -0.00986   2.08145
    A5        2.12274  -0.00049  -0.00207  -0.00019  -0.00225   2.12048
    A6        2.06912   0.00237   0.00227   0.00974   0.01202   2.08114
    A7        2.10632  -0.00030   0.00138  -0.00397  -0.00269   2.10363
    A8        2.08696  -0.00224  -0.00436  -0.01257  -0.01696   2.07001
    A9        2.08980   0.00253   0.00296   0.01638   0.01931   2.10912
   A10        2.11134   0.00131   0.00120   0.00597   0.00691   2.11825
   A11        2.07566   0.00101   0.00005   0.00869   0.00855   2.08420
   A12        2.09600  -0.00233  -0.00130  -0.01520  -0.01663   2.07937
   A13        2.09569   0.00053   0.00198   0.00134   0.00322   2.09891
   A14        2.12060   0.00299   0.00493   0.00905   0.01375   2.13435
   A15        2.06654  -0.00354  -0.00700  -0.01144  -0.01932   2.04722
   A16        2.04765  -0.00440  -0.00941  -0.01287  -0.02220   2.02544
   A17        2.09922  -0.00906  -0.01110  -0.03603  -0.04693   2.05229
   A18        2.13630   0.01347   0.02051   0.04888   0.06911   2.20541
   A19        2.01392  -0.02050  -0.02884  -0.07099  -0.09938   1.91454
   A20        2.15587   0.00977   0.01670   0.03527   0.05129   2.20716
   A21        2.07599  -0.00135  -0.00399   0.00421  -0.00016   2.07583
   A22        2.05037  -0.00846  -0.01296  -0.04086  -0.05389   1.99647
   A23        2.10412   0.00252   0.00366   0.00473   0.00766   2.11178
   A24        2.11009  -0.00111   0.00273  -0.00577  -0.00289   2.10721
   A25        2.06878  -0.00142  -0.00643   0.00071  -0.00541   2.06337
   A26        2.08866  -0.00179  -0.00526  -0.00924  -0.01553   2.07313
   A27        2.09396  -0.00093  -0.00223  -0.00458  -0.00643   2.08753
   A28        2.10049   0.00272   0.00747   0.01363   0.02150   2.12199
   A29        3.09562  -0.00095  -0.00975  -0.04043  -0.05019   3.04543
   A30        3.17507  -0.00007  -0.00022  -0.00138  -0.00161   3.17346
   A31        3.19173  -0.00105   0.01289  -0.08107  -0.06818   3.12355
   A32        3.15120  -0.00021   0.00238  -0.00765  -0.00526   3.14594
    D1        3.12836  -0.00030  -0.00330  -0.01148  -0.01454   3.11382
    D2       -0.00537  -0.00011  -0.00142  -0.00436  -0.00569  -0.01106
    D3        0.00896   0.00048   0.00233   0.01956   0.02210   0.03107
    D4       -3.12476   0.00066   0.00421   0.02668   0.03095  -3.09381
    D5       -3.13225  -0.00003   0.00237  -0.00301  -0.00091  -3.13315
    D6        0.00317   0.00001   0.00078  -0.00515  -0.00376  -0.00059
    D7       -0.01268  -0.00075  -0.00321  -0.03360  -0.03663  -0.04930
    D8        3.12274  -0.00071  -0.00480  -0.03574  -0.03948   3.08326
    D9       -0.00655  -0.00013  -0.00170  -0.00324  -0.00489  -0.01144
   D10       -3.13293   0.00025   0.00212   0.00897   0.01110  -3.12182
   D11        3.12742  -0.00032  -0.00353  -0.01018  -0.01360   3.11382
   D12        0.00104   0.00006   0.00030   0.00204   0.00240   0.00344
   D13        0.00837   0.00013   0.00210   0.00267   0.00490   0.01327
   D14       -3.11214   0.00099   0.00763   0.03222   0.04048  -3.07166
   D15        3.13471  -0.00029  -0.00174  -0.00982  -0.01177   3.12294
   D16        0.01421   0.00056   0.00380   0.01973   0.02381   0.03802
   D17       -0.01242  -0.00046  -0.00307  -0.01789  -0.02119  -0.03361
   D18       -3.12481   0.00076   0.00443   0.02519   0.03072  -3.09410
   D19        3.10784  -0.00128  -0.00867  -0.04750  -0.05637   3.05147
   D20       -0.00455  -0.00006  -0.00117  -0.00441  -0.00446  -0.00901
   D21        0.01423   0.00070   0.00355   0.03245   0.03545   0.04968
   D22       -3.12104   0.00075   0.00517   0.03497   0.03907  -3.08197
   D23        3.12753  -0.00037  -0.00373  -0.00898  -0.01340   3.11413
   D24       -0.00775  -0.00033  -0.00211  -0.00647  -0.00978  -0.01753
   D25        3.09499  -0.00203  -0.01184  -0.07236  -0.08565   3.00933
   D26       -0.03359  -0.00142  -0.00862  -0.05543  -0.06407  -0.09766
   D27       -0.01788  -0.00090  -0.00445  -0.03017  -0.03555  -0.05343
   D28        3.13672  -0.00028  -0.00123  -0.01324  -0.01397   3.12276
   D29       -3.09651   0.00133   0.01159   0.05529   0.06497  -3.03154
   D30        0.03858   0.00130   0.00992   0.05280   0.06140   0.09998
   D31       -0.04669  -0.00171  -0.01191  -0.06856  -0.07923  -0.12591
   D32       -3.14000  -0.00037   0.00039  -0.03284  -0.02937   3.11381
   D33        0.02348   0.00127   0.00596   0.03769   0.04602   0.06950
   D34       -3.09704   0.00175   0.01135   0.05639   0.06948  -3.02757
   D35        3.11745   0.00013  -0.00616   0.00358  -0.00065   3.11680
   D36       -0.00307   0.00061  -0.00078   0.02229   0.02281   0.01974
   D37        0.01100   0.00058   0.00278   0.01654   0.02105   0.03206
   D38        3.13953  -0.00006  -0.00045  -0.00059  -0.00119   3.13834
   D39        3.13202   0.00011  -0.00248  -0.00181  -0.00181   3.13021
   D40       -0.02264  -0.00053  -0.00571  -0.01894  -0.02405  -0.04669
         Item               Value     Threshold  Converged?
 Maximum Force            0.020503     0.000450     NO 
 RMS     Force            0.004050     0.000300     NO 
 Maximum Displacement     0.167354     0.001800     NO 
 RMS     Displacement     0.045700     0.001200     NO 
 Predicted change in Energy=-3.660355D-03
 GradGradGradGradGradGradGradGradGradGradGradGradGradGradGradGradGradGrad

                          Input orientation:                          
 ---------------------------------------------------------------------
 Center     Atomic      Atomic             Coordinates (Angstroms)
 Number     Number       Type             X           Y           Z
 ---------------------------------------------------------------------
      1          7           0        1.137207   -0.080685   -0.074951
      2          6           0        2.338494   -0.142796   -0.115576
      3          6           0        3.801322   -0.078964   -0.132654
      4          6           0        4.454713    1.188818   -0.074323
      5          6           0        5.892651    1.238756   -0.056883
      6          6           0        6.637289    0.071772   -0.082483
      7          6           0        6.001474   -1.225682   -0.143614
      8          6           0        4.532645   -1.333375   -0.137509
      9          6           0        3.754149   -2.571203   -0.124210
     10          6           0        4.625275   -3.682520    0.015538
     11          6           0        6.055571   -3.651024   -0.015264
     12          6           0        6.746411   -2.441166   -0.113678
     13          7           0        3.107069    3.479475    0.035996
     14          6           0        3.698248    2.433164   -0.011272
     15          1           0        6.384009    2.218990    0.007149
     16          1           0        7.733040    0.128097   -0.001665
     17          1           0        4.192075   -4.698197    0.070199
     18          1           0        6.640695   -4.586691   -0.003876
     19          1           0        7.843282   -2.405619   -0.135050
 ---------------------------------------------------------------------
                    Distance matrix (angstroms):
                    1          2          3          4          5
     1  N    0.000000
     2  C    1.203577   0.000000
     3  C    2.664740   1.464320   0.000000
     4  C    3.552110   2.500656   1.427443   0.000000
     5  C    4.935129   3.813681   2.473011   1.438911   0.000000
     6  C    5.502200   4.304274   2.840413   2.451836   1.384555
     7  C    4.997682   3.819797   2.481079   2.868289   2.468364
     8  C    3.619688   2.496449   1.452034   2.524188   2.910666
     9  C    3.612962   2.810928   2.492700   3.825054   4.369613
    10  C    5.014780   4.216184   3.699523   4.875151   5.082366
    11  C    6.077927   5.112181   4.225522   5.098069   4.892671
    12  C    6.085766   4.971142   3.775435   4.293043   3.778089
    13  N    4.070308   3.706012   3.629451   2.659967   3.576159
    14  C    3.589210   2.914684   2.517170   1.457605   2.498819
    15  H    5.729239   4.686074   3.459828   2.188624   1.098359
    16  H    6.599544   5.402545   3.939345   3.446424   2.150266
    17  H    5.538475   4.921581   4.640168   5.894643   6.177016
    18  H    7.113194   6.186245   5.328999   6.175758   5.873518
    19  H    7.097913   5.951760   4.663772   4.940249   4.134312
                    6          7          8          9         10
     6  C    0.000000
     7  C    1.446163   0.000000
     8  C    2.531204   1.472784   0.000000
     9  C    3.911465   2.619403   1.462345   0.000000
    10  C    4.260577   2.820515   2.355947   1.418948   0.000000
    11  C    3.768571   2.429338   2.775923   2.544490   1.430975
    12  C    2.515500   1.425914   2.475587   2.995105   2.461072
    13  N    4.908047   5.527055   5.022538   6.087289   7.321170
    14  C    3.770836   4.325450   3.859918   5.005954   6.185603
    15  H    2.163962   3.469126   4.008463   5.466203   6.158006
    16  H    1.100170   2.202542   3.520921   4.809659   4.917245
    17  H    5.362368   3.921480   3.388386   2.180293   1.105555
    18  H    4.659128   3.424108   3.878892   3.522616   2.209032
    19  H    2.755839   2.187369   3.479947   4.092499   3.465360
                   11         12         13         14         15
    11  C    0.000000
    12  C    1.396675   0.000000
    13  N    7.716237   6.951345   0.000000
    14  C    6.524901   5.749859   1.202702   0.000000
    15  H    5.879239   4.675788   3.511123   2.694350   0.000000
    16  H    4.134712   2.754469   5.712509   4.646824   2.488333
    17  H    2.139274   3.413596   8.249408   7.148903   7.256448
    18  H    1.103618   2.150932   8.806312   7.611598   6.810530
    19  H    2.182039   1.097655   7.556143   6.372633   4.851465
                   16         17         18         19
    16  H    0.000000
    17  H    5.986378   0.000000
    18  H    4.839675   2.452277   0.000000
    19  H    2.539618   4.316174   2.494093   0.000000
 Stoichiometry    C12H5N2(1-)
 Framework group  C1[X(C12H5N2)]
 Deg. of freedom    51
 Full point group                 C1      NOp   1
 Largest Abelian subgroup         C1      NOp   1
 Largest concise Abelian subgroup C1      NOp   1
                         Standard orientation:                         
 ---------------------------------------------------------------------
 Center     Atomic      Atomic             Coordinates (Angstroms)
 Number     Number       Type             X           Y           Z
 ---------------------------------------------------------------------
      1          7           0        1.904272    2.860821   -0.007833
      2          6           0        1.313986    1.812716   -0.048289
      3          6           0        0.720251    0.474284   -0.065974
      4          6           0        1.565240   -0.675065   -0.015146
      5          6           0        0.970314   -1.985119    0.001771
      6          6           0       -0.406218   -2.132751   -0.017140
      7          6           0       -1.285614   -0.985933   -0.070598
      8          6           0       -0.728546    0.377416   -0.063628
      9          6           0       -1.490681    1.625285   -0.042982
     10          6           0       -2.872781    1.339154    0.103107
     11          6           0       -3.481073    0.044281    0.071891
     12          6           0       -2.705428   -1.112407   -0.033691
     13          7           0        4.216808   -0.487539    0.082024
     14          6           0        3.016509   -0.551362    0.040767
     15          1           0        1.629903   -2.861443    0.060004
     16          1           0       -0.842859   -3.139363    0.063172
     17          1           0       -3.589375    2.178836    0.163762
     18          1           0       -4.579287   -0.063505    0.088644
     19          1           0       -3.161701   -2.110499   -0.055447
 ---------------------------------------------------------------------
 Rotational constants (GHZ):      1.3287274      0.5545720      0.3916197
 Standard basis: STO-3G (5D, 7F)
 There are    75 symmetry adapted cartesian basis functions of A   symmetry.
 There are    75 symmetry adapted basis functions of A   symmetry.
    75 basis functions,   225 primitive gaussians,    75 cartesian basis functions
    46 alpha electrons       46 beta electrons
       nuclear repulsion energy       703.3197025862 Hartrees.
 NAtoms=   19 NActive=   19 NUniq=   19 SFac= 1.00D+00 NAtFMM=   60 NAOKFM=F Big=F
 Integral buffers will be    131072 words long.
 Raffenetti 2 integral format.
 Two-electron integral symmetry is turned on.
 One-electron integrals computed using PRISM.
 NBasis=    75 RedAO= T EigKep=  1.76D-01  NBF=    75
 NBsUse=    75 1.00D-06 EigRej= -1.00D+00 NBFU=    75
 Initial guess from the checkpoint file:  "/tmp/bnp.472674.sequoia/Gau-27182.chk"
 B after Tr=     0.000000    0.000000    0.000000
         Rot=    0.999997    0.000151   -0.000072    0.002550 Ang=   0.29 deg.
 ExpMin= 1.69D-01 ExpMax= 9.91D+01 ExpMxC= 9.91D+01 IAcc=1 IRadAn=         1 AccDes= 0.00D+00
 Harris functional with IExCor=  402 and IRadAn=       1 diagonalized for initial guess.
 HarFok:  IExCor=  402 AccDes= 0.00D+00 IRadAn=         1 IDoV= 1 UseB2=F ITyADJ=14
 ICtDFT=  3500011 ScaDFX=  1.000000  1.000000  1.000000  1.000000
 FoFCou: FMM=F IPFlag=           0 FMFlag=      100000 FMFlg1=           0
         NFxFlg=           0 DoJE=T BraDBF=F KetDBF=T FulRan=T
         wScrn=  0.000000 ICntrl=     500 IOpCl=  0 I1Cent=   200000004 NGrid=           0
         NMat0=    1 NMatS0=      1 NMatT0=    0 NMatD0=    1 NMtDS0=    0 NMtDT0=    0
 Petite list used in FoFCou.
 Keep R1 ints in memory in canonical form, NReq=4993994.
 Requested convergence on RMS density matrix=1.00D-08 within 128 cycles.
 Requested convergence on MAX density matrix=1.00D-06.
 Requested convergence on             energy=1.00D-06.
 No special actions if energy rises.
 Integral accuracy reduced to 1.0D-05 until final iterations.
 Initial convergence to 1.0D-05 achieved.  Increase integral accuracy.
 SCF Done:  E(RB3LYP) =  -562.505255717     A.U. after   19 cycles
            NFock= 19  Conv=0.39D-08     -V/T= 2.0141
 Calling FoFJK, ICntrl=      2127 FMM=F ISym2X=0 I1Cent= 0 IOpClX= 0 NMat=1 NMatS=1 NMatT=0.
 ***** Axes restored to original set *****
 -------------------------------------------------------------------
 Center     Atomic                   Forces (Hartrees/Bohr)
 Number     Number              X              Y              Z
 -------------------------------------------------------------------
      1        7           0.004256959   -0.000846678   -0.002032014
      2        6          -0.007202203    0.000056838    0.003462490
      3        6           0.006232462    0.000383171   -0.000707066
      4        6          -0.003367298   -0.001274785   -0.000677438
      5        6           0.001091733    0.000810643    0.000819658
      6        6          -0.001971844   -0.001518489    0.000237747
      7        6          -0.000891147    0.001326033    0.002685311
      8        6           0.007561165    0.008009971   -0.002146806
      9        6          -0.009537340   -0.000270892    0.001646561
     10        6           0.006422647   -0.006152139   -0.002598225
     11        6          -0.002128974   -0.000242689   -0.000882819
     12        6           0.001679077    0.000998723    0.000696527
     13        7           0.002146057   -0.003772740   -0.000056001
     14        6          -0.001639808    0.003269534   -0.000505220
     15        1          -0.000289744   -0.000374676    0.000088821
     16        1          -0.000375191   -0.000498691   -0.001205016
     17        1          -0.000108046    0.000142169    0.001011989
     18        1          -0.001472216    0.000218158    0.000587295
     19        1          -0.000406289   -0.000263461   -0.000425794
 -------------------------------------------------------------------
 Cartesian Forces:  Max     0.009537340 RMS     0.002997276

 GradGradGradGradGradGradGradGradGradGradGradGradGradGradGradGradGradGrad
 Berny optimization.
 Using GEDIIS/GDIIS optimizer.
 FormGI is forming the generalized inverse of G from B-inverse, IUseBI=4.
 Internal  Forces:  Max     0.006862664 RMS     0.001612273
 Search for a local minimum.
 Step number   3 out of a maximum of  102
 All quantities printed in internal units (Hartrees-Bohrs-Radians)
 Mixed Optimization -- RFO/linear search
 Update second derivatives using D2CorX and points    1    2    3
 DE= -3.85D-03 DEPred=-3.66D-03 R= 1.05D+00
 TightC=F SS=  1.41D+00  RLast= 2.98D-01 DXNew= 8.4853D-01 8.9488D-01
 Trust test= 1.05D+00 RLast= 2.98D-01 DXMaxT set to 8.49D-01
 ITU=  1  1  0
 Use linear search instead of GDIIS.
     Eigenvalues ---    0.01571   0.01604   0.01915   0.01932   0.01952
     Eigenvalues ---    0.02026   0.02048   0.02064   0.02099   0.02121
     Eigenvalues ---    0.02124   0.02139   0.02172   0.02193   0.02212
     Eigenvalues ---    0.02555   0.04870   0.04871   0.14877   0.15977
     Eigenvalues ---    0.15981   0.15991   0.16118   0.17710   0.22164
     Eigenvalues ---    0.22529   0.23741   0.24632   0.24958   0.24991
     Eigenvalues ---    0.25196   0.34849   0.34922   0.34957   0.35152
     Eigenvalues ---    0.35211   0.38173   0.39194   0.40154   0.40737
     Eigenvalues ---    0.41215   0.43105   0.43884   0.44955   0.44993
     Eigenvalues ---    0.45901   0.46291   0.46757   0.52534   1.28070
     Eigenvalues ---    1.39529
 RFO step:  Lambda=-1.94717346D-03 EMin= 1.57113010D-02
 Quartic linear search produced a step of -0.01089.
 Iteration  1 RMS(Cart)=  0.04759360 RMS(Int)=  0.00572777
 Iteration  2 RMS(Cart)=  0.00808562 RMS(Int)=  0.00015173
 Iteration  3 RMS(Cart)=  0.00015024 RMS(Int)=  0.00009557
 Iteration  4 RMS(Cart)=  0.00000006 RMS(Int)=  0.00009557
 Variable       Old X    -DE/DX   Delta X   Delta X   Delta X     New X
                                 (Linear)    (Quad)   (Total)
    R1        2.27443  -0.00436  -0.00010   0.00173   0.00163   2.27606
    R2        2.76716   0.00300  -0.00018   0.01249   0.01231   2.77947
    R3        2.69748  -0.00299   0.00010  -0.00661  -0.00651   2.69096
    R4        2.74395  -0.00286  -0.00004  -0.00351  -0.00354   2.74040
    R5        2.71915   0.00071  -0.00016   0.00767   0.00750   2.72665
    R6        2.75447  -0.00072  -0.00006   0.00089   0.00083   2.75531
    R7        2.61643   0.00071   0.00015  -0.00169  -0.00154   2.61489
    R8        2.07560  -0.00046  -0.00003  -0.00008  -0.00011   2.07549
    R9        2.73285  -0.00204  -0.00009   0.00065   0.00057   2.73342
   R10        2.07902  -0.00049  -0.00005   0.00029   0.00024   2.07926
   R11        2.78316  -0.00317  -0.00015  -0.00066  -0.00084   2.78232
   R12        2.69459   0.00084  -0.00004   0.00365   0.00356   2.69815
   R13        2.76343   0.00686  -0.00044   0.02763   0.02720   2.79063
   R14        2.68142   0.00572  -0.00026   0.01896   0.01876   2.70018
   R15        2.70415  -0.00234  -0.00008  -0.00017  -0.00022   2.70394
   R16        2.08920  -0.00004  -0.00008   0.00276   0.00268   2.09187
   R17        2.63933   0.00203   0.00005   0.00305   0.00309   2.64242
   R18        2.08554  -0.00096  -0.00004  -0.00064  -0.00069   2.08485
   R19        2.07427  -0.00040  -0.00003   0.00017   0.00013   2.07440
   R20        2.27278  -0.00434  -0.00010   0.00160   0.00150   2.27428
    A1        2.08922   0.00108   0.00002   0.00410   0.00411   2.09333
    A2        2.05502  -0.00220   0.00024  -0.01406  -0.01383   2.04119
    A3        2.13752   0.00114  -0.00026   0.01047   0.01020   2.14771
    A4        2.08145  -0.00144   0.00011  -0.00734  -0.00724   2.07420
    A5        2.12048   0.00094   0.00002   0.00253   0.00256   2.12304
    A6        2.08114   0.00051  -0.00013   0.00488   0.00475   2.08588
    A7        2.10363  -0.00053   0.00003  -0.00165  -0.00165   2.10198
    A8        2.07001   0.00017   0.00018  -0.00440  -0.00424   2.06577
    A9        2.10912   0.00037  -0.00021   0.00642   0.00619   2.11530
   A10        2.11825   0.00069  -0.00008   0.00521   0.00511   2.12335
   A11        2.08420   0.00021  -0.00009   0.00411   0.00398   2.08819
   A12        2.07937  -0.00087   0.00018  -0.00855  -0.00841   2.07096
   A13        2.09891  -0.00131  -0.00004  -0.00389  -0.00392   2.09499
   A14        2.13435   0.00137  -0.00015   0.01101   0.01089   2.14524
   A15        2.04722  -0.00002   0.00021  -0.00608  -0.00600   2.04122
   A16        2.02544   0.00147   0.00024  -0.00257  -0.00232   2.02312
   A17        2.05229  -0.00275   0.00051  -0.02314  -0.02263   2.02966
   A18        2.20541   0.00128  -0.00075   0.02566   0.02489   2.23030
   A19        1.91454  -0.00214   0.00108  -0.03345  -0.03227   1.88227
   A20        2.20716  -0.00060  -0.00056   0.01382   0.01316   2.22032
   A21        2.07583   0.00021   0.00000   0.00070   0.00047   2.07629
   A22        1.99647   0.00049   0.00059  -0.01157  -0.01125   1.98523
   A23        2.11178   0.00146  -0.00008   0.00797   0.00789   2.11967
   A24        2.10721  -0.00194   0.00003  -0.01006  -0.01007   2.09714
   A25        2.06337   0.00049   0.00006   0.00255   0.00257   2.06594
   A26        2.07313   0.00011   0.00017  -0.00612  -0.00603   2.06710
   A27        2.08753   0.00017   0.00007   0.00055   0.00063   2.08815
   A28        2.12199  -0.00028  -0.00023   0.00596   0.00573   2.12772
   A29        3.04543   0.00163   0.00055   0.07719   0.07774   3.12317
   A30        3.17346   0.00002   0.00002   0.00003   0.00004   3.17350
   A31        3.12355   0.00417   0.00074   0.22252   0.22327   3.34681
   A32        3.14594  -0.00013   0.00006  -0.00321  -0.00315   3.14278
    D1        3.11382  -0.00001   0.00016  -0.00179  -0.00159   3.11223
    D2       -0.01106  -0.00016   0.00006  -0.00680  -0.00671  -0.01777
    D3        0.03107  -0.00040  -0.00024  -0.01162  -0.01186   0.01921
    D4       -3.09381  -0.00055  -0.00034  -0.01663  -0.01699  -3.11080
    D5       -3.13315  -0.00020   0.00001  -0.00528  -0.00522  -3.13837
    D6       -0.00059  -0.00024   0.00004  -0.01056  -0.01050  -0.01109
    D7       -0.04930   0.00029   0.00040   0.00494   0.00531  -0.04399
    D8        3.08326   0.00025   0.00043  -0.00035   0.00003   3.08329
    D9       -0.01144   0.00033   0.00005   0.01338   0.01341   0.00196
   D10       -3.12182  -0.00006  -0.00012  -0.00034  -0.00048  -3.12230
   D11        3.11382   0.00048   0.00015   0.01825   0.01840   3.13222
   D12        0.00344   0.00009  -0.00003   0.00453   0.00451   0.00795
   D13        0.01327  -0.00021  -0.00005  -0.00845  -0.00855   0.00472
   D14       -3.07166  -0.00078  -0.00044  -0.02426  -0.02482  -3.09648
   D15        3.12294   0.00019   0.00013   0.00538   0.00555   3.12849
   D16        0.03802  -0.00038  -0.00026  -0.01043  -0.01072   0.02729
   D17       -0.03361   0.00021   0.00023   0.00181   0.00203  -0.03157
   D18       -3.09410  -0.00046  -0.00033  -0.01346  -0.01385  -3.10795
   D19        3.05147   0.00081   0.00061   0.01798   0.01854   3.07001
[...]
 ! D14   D(4,5,6,16)           179.9934         -DE/DX =    0.0                 !
 ! D15   D(15,5,6,7)           179.9969         -DE/DX =    0.0                 !
 ! D16   D(15,5,6,16)           -0.0058         -DE/DX =    0.0                 !
 ! D17   D(5,6,7,8)              0.0105         -DE/DX =    0.0                 !
 ! D18   D(5,6,7,12)          -179.9901         -DE/DX =    0.0                 !
 ! D19   D(16,6,7,8)          -179.9869         -DE/DX =    0.0                 !
 ! D20   D(16,6,7,12)            0.0126         -DE/DX =    0.0                 !
 ! D21   D(6,7,8,3)             -0.0089         -DE/DX =    0.0                 !
 ! D22   D(6,7,8,9)           -180.0106         -DE/DX =    0.0                 !
 ! D23   D(12,7,8,3)           179.9916         -DE/DX =    0.0                 !
 ! D24   D(12,7,8,9)            -0.0101         -DE/DX =    0.0                 !
 ! D25   D(6,7,12,11)          180.0105         -DE/DX =    0.0                 !
 ! D26   D(6,7,12,19)            0.0016         -DE/DX =    0.0                 !
 ! D27   D(8,7,12,11)            0.01           -DE/DX =    0.0                 !
 ! D28   D(8,7,12,19)          180.001          -DE/DX =    0.0                 !
 ! D29   D(3,8,9,10)          -180.0008         -DE/DX =    0.0                 !
 ! D30   D(7,8,9,10)             0.0009         -DE/DX =    0.0                 !
 ! D31   D(8,9,10,11)            0.0087         -DE/DX =    0.0                 !
 ! D32   D(8,9,10,17)         -179.9963         -DE/DX =    0.0                 !
 ! D33   D(9,10,11,12)          -0.009          -DE/DX =    0.0                 !
 ! D34   D(9,10,11,18)        -180.0158         -DE/DX =    0.0                 !
 ! D35   D(17,10,11,12)        179.9958         -DE/DX =    0.0                 !
 ! D36   D(17,10,11,18)         -0.011          -DE/DX =    0.0                 !
 ! D37   D(10,11,12,7)          -0.0016         -DE/DX =    0.0                 !
 ! D38   D(10,11,12,19)       -179.9926         -DE/DX =    0.0                 !
 ! D39   D(18,11,12,7)         180.0051         -DE/DX =    0.0                 !
 ! D40   D(18,11,12,19)          0.0141         -DE/DX =    0.0                 !
 --------------------------------------------------------------------------------
 GradGradGradGradGradGradGradGradGradGradGradGradGradGradGradGradGradGrad

                          Input orientation:                          
 ---------------------------------------------------------------------
 Center     Atomic      Atomic             Coordinates (Angstroms)
 Number     Number       Type             X           Y           Z
 ---------------------------------------------------------------------
      1          7           0        1.149644   -0.131314   -0.056802
      2          6           0        2.350492   -0.183334   -0.057051
      3          6           0        3.820317   -0.075630   -0.057208
      4          6           0        4.455355    1.194987   -0.056916
      5          6           0        5.897216    1.246988   -0.057199
      6          6           0        6.642418    0.080239   -0.057668
      7          6           0        6.014969   -1.220411   -0.057804
      8          6           0        4.552068   -1.319696   -0.057673
      9          6           0        3.728193   -2.550147   -0.057997
     10          6           0        4.614341   -3.676813   -0.058456
     11          6           0        6.039856   -3.646857   -0.058415
     12          6           0        6.750600   -2.441143   -0.058076
     13          7           0        3.100295    3.480613   -0.055996
     14          6           0        3.694576    2.437453   -0.056314
     15          1           0        6.387694    2.229040   -0.057050
     16          1           0        7.740530    0.140369   -0.057989
     17          1           0        4.178608   -4.692454   -0.058811
     18          1           0        6.611123   -4.589989   -0.058539
     19          1           0        7.847326   -2.420751   -0.058166
 ---------------------------------------------------------------------
                    Distance matrix (angstroms):
                    1          2          3          4          5
     1  N    0.000000
     2  C    1.201974   0.000000
     3  C    2.671253   1.473765   0.000000
     4  C    3.561853   2.515992   1.420472   0.000000
     5  C    4.943597   3.824274   2.462281   1.442799   0.000000
     6  C    5.496846   4.300011   2.826402   2.454773   1.384424
     7  C    4.985731   3.808401   2.475283   2.875160   2.470207
     8  C    3.603989   2.477550   1.443316   2.516543   2.897808
     9  C    3.535486   2.738587   2.476231   3.815075   4.372973
    10  C    4.957287   4.162861   3.687682   4.874394   5.088181
    11  C    6.022724   5.060375   4.204761   5.094516   4.895923
    12  C    6.058549   4.945569   3.765928   4.299953   3.785575
    13  N    4.105004   3.739881   3.628401   2.657118   3.579365
    14  C    3.615971   2.945350   2.516227   1.456882   2.503763
    15  H    5.745297   4.703036   3.450062   2.191620   1.097723
    16  H    6.596483   5.399749   3.926160   3.450304   2.149979
    17  H    5.475273   4.865611   4.630706   5.893942   6.183089
    18  H    7.050357   6.129567   5.307358   6.173597   5.880473
    19  H    7.078168   5.934747   4.660086   4.957724   4.153942
                    6          7          8          9         10
     6  C    0.000000
     7  C    1.444085   0.000000
     8  C    2.515826   1.466266   0.000000
     9  C    3.925765   2.645287   1.480803   0.000000
    10  C    4.269488   2.827661   2.357940   1.433401   0.000000
    11  C    3.775489   2.426573   2.762099   2.558624   1.425829
    12  C    2.523702   1.425250   2.468033   3.024372   2.467890
    13  N    4.910111   5.531271   5.015039   6.063359   7.315811
    14  C    3.774418   4.331766   3.853760   4.987713   6.183059
    15  H    2.163847   3.469530   3.995379   5.469330   6.166351
    16  H    1.099757   2.197563   3.506862   4.830913   4.933957
    17  H    5.371122   3.927760   3.393371   2.189145   1.105165
    18  H    4.670333   3.421908   3.864522   3.531607   2.195684
    19  H    2.776104   2.190513   3.474342   4.121165   3.468412
                   11         12         13         14         15
    11  C    0.000000
    12  C    1.399608   0.000000
    13  N    7.709854   6.956431   0.000000
    14  C    6.520672   5.756734   1.200564   0.000000
    15  H    5.886183   4.684262   3.517589   2.701170   0.000000
    16  H    4.151550   2.764809   5.717431   4.652563   2.488516
    17  H    2.134834   3.418120   8.243894   7.146318   7.265476
    18  H    1.102654   2.153368   8.801167   7.608626   6.822689
    19  H    2.184098   1.096916   7.573665   6.391203   4.873508
                   16         17         18         19
    16  H    0.000000
    17  H    6.003621   0.000000
    18  H    4.863316   2.434673   0.000000
    19  H    2.563345   4.315105   2.496756   0.000000
 Stoichiometry    C12H5N2(1-)
 Framework group  C1[X(C12H5N2)]
 Deg. of freedom    51
 Full point group                 C1      NOp   1
 Largest Abelian subgroup         C1      NOp   1
 Largest concise Abelian subgroup C1      NOp   1
                         Standard orientation:                         
 ---------------------------------------------------------------------
 Center     Atomic      Atomic             Coordinates (Angstroms)
 Number     Number       Type             X           Y           Z
 ---------------------------------------------------------------------
      1          7           0        1.840328    2.882620    0.000040
      2          6           0        1.264893    1.827340   -0.000031
      3          6           0        0.714437    0.460233   -0.000019
      4          6           0        1.575658   -0.669386   -0.000008
      5          6           0        0.987500   -1.986860   -0.000110
      6          6           0       -0.388178   -2.142226   -0.000139
      7          6           0       -1.279707   -1.006197    0.000015
      8          6           0       -0.724739    0.350986   -0.000024
      9          6           0       -1.466753    1.632468   -0.000104
     10          6           0       -2.868501    1.332905   -0.000116
     11          6           0       -3.469254    0.039814    0.000111
     12          6           0       -2.699639   -1.129201    0.000197
     13          7           0        4.224441   -0.459095    0.000066
     14          6           0        3.026177   -0.533373    0.000131
     15          1           0        1.653282   -2.859631   -0.000178
     16          1           0       -0.817685   -3.154643   -0.000328
     17          1           0       -3.588545    2.171312   -0.000236
     18          1           0       -4.567575   -0.057843    0.000337
     19          1           0       -3.164215   -2.122878    0.000251
 ---------------------------------------------------------------------
 Rotational constants (GHZ):      1.3203793      0.5583298      0.3924009

 **********************************************************************

            Population analysis using the SCF density.

 **********************************************************************

 Orbital symmetries:
       Occupied  (A) (A) (A) (A) (A) (A) (A) (A) (A) (A) (A) (A)
                 (A) (A) (A) (A) (A) (A) (A) (A) (A) (A) (A) (A)
                 (A) (A) (A) (A) (A) (A) (A) (A) (A) (A) (A) (A)
                 (A) (A) (A) (A) (A) (A) (A) (A) (A) (A)
       Virtual   (A) (A) (A) (A) (A) (A) (A) (A) (A) (A) (A) (A)
                 (A) (A) (A) (A) (A) (A) (A) (A) (A) (A) (A) (A)
                 (A) (A) (A) (A) (A)
 The electronic state is 1-A.
 Alpha  occ. eigenvalues --  -13.99052 -13.96803  -9.90647  -9.90370  -9.89547
 Alpha  occ. eigenvalues --   -9.88103  -9.87656  -9.87191  -9.85898  -9.83696
 Alpha  occ. eigenvalues --   -9.83118  -9.82861  -9.78578  -9.66638  -0.72476
 Alpha  occ. eigenvalues --   -0.70012  -0.66894  -0.61325  -0.58116  -0.54287
 Alpha  occ. eigenvalues --   -0.49976  -0.45310  -0.42023  -0.39301  -0.34371
 Alpha  occ. eigenvalues --   -0.32476  -0.29989  -0.27506  -0.25067  -0.23142
 Alpha  occ. eigenvalues --   -0.20973  -0.18934  -0.18478  -0.16657  -0.15689
 Alpha  occ. eigenvalues --   -0.15340  -0.14113  -0.13924  -0.12900  -0.10803
 Alpha  occ. eigenvalues --   -0.10350  -0.08901  -0.05906  -0.02693   0.02534
 Alpha  occ. eigenvalues --    0.11366
 Alpha virt. eigenvalues --    0.16371   0.21090   0.25781   0.27378   0.28417
 Alpha virt. eigenvalues --    0.30249   0.32809   0.38396   0.42181   0.46310
 Alpha virt. eigenvalues --    0.47206   0.50530   0.52912   0.55404   0.58556
 Alpha virt. eigenvalues --    0.59458   0.61887   0.62930   0.67798   0.69143
 Alpha virt. eigenvalues --    0.70874   0.76848   0.78425   0.82327   0.84749
 Alpha virt. eigenvalues --    0.93003   0.93857   1.04864   1.09143
          Condensed to atoms (all electrons):
               1          2          3          4          5          6
     1  N    6.585323   0.656776  -0.009764  -0.000227  -0.000001   0.000000
     2  C    0.656776   4.917653   0.406309  -0.028734   0.000788   0.000011
     3  C   -0.009764   0.406309   4.786232   0.487426  -0.028876  -0.009318
     4  C   -0.000227  -0.028734   0.487426   4.787357   0.462176  -0.028883
     5  C   -0.000001   0.000788  -0.028876   0.462176   4.828937   0.530788
     6  C    0.000000   0.000011  -0.009318  -0.028883   0.530788   4.834454
     7  C   -0.000003   0.001001  -0.032728  -0.007664  -0.027638   0.459268
     8  C    0.000096  -0.032098   0.460085  -0.025324  -0.007670  -0.022965
     9  C   -0.001249   0.008060  -0.039233   0.000787   0.000020   0.000557
    10  C    0.000003  -0.000034   0.001527  -0.000016   0.000001   0.000043
    11  C    0.000000   0.000002   0.000014   0.000001  -0.000008   0.000810
    12  C    0.000000  -0.000006   0.000885   0.000036   0.000747  -0.028754
    13  N   -0.000011  -0.000021  -0.000053  -0.010936  -0.000132  -0.000001
    14  C   -0.000002  -0.002348  -0.027249   0.423876  -0.028717   0.000836
    15  H    0.000000  -0.000016   0.001189  -0.025150   0.387462  -0.024910
    16  H    0.000000   0.000001   0.000011   0.001414  -0.026935   0.384042
    17  H    0.000000  -0.000006  -0.000016   0.000000   0.000000   0.000001
    18  H    0.000000   0.000000   0.000001   0.000000   0.000000  -0.000017
    19  H    0.000000   0.000000  -0.000020   0.000000   0.000011  -0.003244
               7          8          9         10         11         12
     1  N   -0.000003   0.000096  -0.001249   0.000003   0.000000   0.000000
     2  C    0.001001  -0.032098   0.008060  -0.000034   0.000002  -0.000006
     3  C   -0.032728   0.460085  -0.039233   0.001527   0.000014   0.000885
     4  C   -0.007664  -0.025324   0.000787  -0.000016   0.000001   0.000036
     5  C   -0.027638  -0.007670   0.000020   0.000001  -0.000008   0.000747
     6  C    0.459268  -0.022965   0.000557   0.000043   0.000810  -0.028754
     7  C    4.821145   0.434332  -0.016832  -0.011966  -0.029219   0.482067
     8  C    0.434332   4.912200   0.389515  -0.030846  -0.014119  -0.031468
     9  C   -0.016832   0.389515   5.475073   0.446087  -0.018163  -0.005895
    10  C   -0.011966  -0.030846   0.446087   4.939764   0.474238  -0.029559
    11  C   -0.029219  -0.014119  -0.018163   0.474238   4.853898   0.510895
    12  C    0.482067  -0.031468  -0.005895  -0.029559   0.510895   4.871025
    13  N    0.000000  -0.000001   0.000000   0.000000   0.000000   0.000000
    14  C    0.000007   0.000711  -0.000006   0.000000   0.000000   0.000000
    15  H    0.001340   0.000025   0.000000   0.000000   0.000000  -0.000016
    16  H   -0.024322   0.001127  -0.000012  -0.000002   0.000011  -0.003131
    17  H    0.000005   0.002306  -0.031880   0.380049  -0.035372   0.001449
    18  H    0.001483   0.000101   0.001082  -0.023947   0.379905  -0.028363
    19  H   -0.025737   0.001203  -0.000005   0.001245  -0.025013   0.386459
              13         14         15         16         17         18
     1  N   -0.000011  -0.000002   0.000000   0.000000   0.000000   0.000000
     2  C   -0.000021  -0.002348  -0.000016   0.000001  -0.000006   0.000000
     3  C   -0.000053  -0.027249   0.001189   0.000011  -0.000016   0.000001
     4  C   -0.010936   0.423876  -0.025150   0.001414   0.000000   0.000000
     5  C   -0.000132  -0.028717   0.387462  -0.026935   0.000000   0.000000
     6  C   -0.000001   0.000836  -0.024910   0.384042   0.000001  -0.000017
     7  C    0.000000   0.000007   0.001340  -0.024322   0.000005   0.001483
     8  C   -0.000001   0.000711   0.000025   0.001127   0.002306   0.000101
     9  C    0.000000  -0.000006   0.000000  -0.000012  -0.031880   0.001082
    10  C    0.000000   0.000000   0.000000  -0.000002   0.380049  -0.023947
    11  C    0.000000   0.000000   0.000000   0.000011  -0.035372   0.379905
    12  C    0.000000   0.000000  -0.000016  -0.003131   0.001449  -0.028363
    13  N    6.585836   0.659252   0.000059   0.000000   0.000000   0.000000
    14  C    0.659252   4.928019  -0.003121  -0.000017   0.000000   0.000000
    15  H    0.000059  -0.003121   0.606154  -0.003910   0.000000   0.000000
    16  H    0.000000  -0.000017  -0.003910   0.616512   0.000000  -0.000002
    17  H    0.000000   0.000000   0.000000   0.000000   0.672265  -0.003808
    18  H    0.000000   0.000000   0.000000  -0.000002  -0.003808   0.642664
    19  H    0.000000   0.000000  -0.000001   0.001003  -0.000040  -0.003746
              19
     1  N    0.000000
     2  C    0.000000
     3  C   -0.000020
     4  C    0.000000
     5  C    0.000011
     6  C   -0.003244
     7  C   -0.025737
     8  C    0.001203
     9  C   -0.000005
    10  C    0.001245
    11  C   -0.025013
    12  C    0.386459
    13  N    0.000000
    14  C    0.000000
    15  H   -0.000001
    16  H    0.001003
    17  H   -0.000040
    18  H   -0.003746
    19  H    0.632442
 Mulliken charges:
               1
     1  N   -0.230941
     2  C    0.072662
     3  C    0.003578
     4  C   -0.036139
     5  C   -0.090952
     6  C   -0.092720
     7  C   -0.024539
     8  C   -0.037209
     9  C   -0.207908
    10  C   -0.146587
    11  C   -0.097880
    12  C   -0.126372
    13  N   -0.233992
    14  C    0.048760
    15  H    0.060893
    16  H    0.054210
    17  H    0.015047
    18  H    0.034646
    19  H    0.035443
 Sum of Mulliken charges =  -1.00000
 Mulliken charges with hydrogens summed into heavy atoms:
               1
     1  N   -0.230941
     2  C    0.072662
     3  C    0.003578
     4  C   -0.036139
     5  C   -0.030059
     6  C   -0.038510
     7  C   -0.024539
     8  C   -0.037209
     9  C   -0.207908
    10  C   -0.131540
    11  C   -0.063234
    12  C   -0.090929
    13  N   -0.233992
    14  C    0.048760
 Electronic spatial extent (au):  <R**2>=           2640.2282
 Charge=             -1.0000 electrons
 Dipole moment (field-independent basis, Debye):
    X=             -1.5884    Y=             -6.0061    Z=             -0.0001  Tot=              6.2126
 Quadrupole moment (field-independent basis, Debye-Ang):
   XX=           -111.4483   YY=            -93.2440   ZZ=            -74.1668
   XY=             -0.1991   XZ=             -0.0007   YZ=              0.0005
 Traceless Quadrupole moment (field-independent basis, Debye-Ang):
   XX=            -18.4953   YY=             -0.2910   ZZ=             18.7862
   XY=             -0.1991   XZ=             -0.0007   YZ=              0.0005
 Octapole moment (field-independent basis, Debye-Ang**2):
  XXX=            -82.4238  YYY=            -60.9879  ZZZ=              0.0002  XYY=             -7.2186
  XXY=            -13.3891  XXZ=              0.0000  XZZ=              7.1201  YZZ=              3.1248
  YYZ=             -0.0012  XYZ=             -0.0012
 Hexadecapole moment (field-independent basis, Debye-Ang**3):
 XXXX=          -2904.8344 YYYY=          -1170.2454 ZZZZ=            -58.3941 XXXY=             39.3403
 XXXZ=             -0.0154 YYYX=            -48.3146 YYYZ=              0.0033 ZZZX=              0.0014
 ZZZY=              0.0003 XXYY=           -616.4808 XXZZ=           -398.9767 YYZZ=           -183.3332
 XXYZ=              0.0011 YYXZ=             -0.0017 ZZXY=              3.3828
 N-N= 7.035867405033D+02 E-N=-2.729577496724D+03  KE= 5.546827433451D+02
 1\1\GINC-N051\FOpt\RB3LYP\STO-3G\C12H5N2(1-)\R2532\15-Jun-2021\0\\#N B
 3LYP/STO-3G OPT\\1Naph\\-1,1\N,1.1496443378,-0.1313142038,-0.056801732
 9\C,2.3504923345,-0.1833338762,-0.0570513049\C,3.8203165384,-0.0756296
 818,-0.0572080987\C,4.4553550004,1.194987362,-0.056915876\C,5.89721628
 46,1.2469877499,-0.0571993067\C,6.6424176576,0.0802385605,-0.057667753
 9\C,6.014968825,-1.2204114907,-0.0578042335\C,4.552067805,-1.319696120
 1,-0.0576732923\C,3.7281925869,-2.5501465594,-0.0579969392\C,4.6143413
 592,-3.6768131611,-0.0584561763\C,6.0398555348,-3.6468566749,-0.058414
 5167\C,6.7505995355,-2.4411432959,-0.0580763209\N,3.1002946037,3.48061
 30729,-0.0559959436\C,3.6945762684,2.4374530463,-0.0563137439\H,6.3876
 941584,2.2290399702,-0.0570498774\H,7.7405298752,0.1403689767,-0.05798
 88876\H,4.1786076577,-4.6924538334,-0.0588110787\H,6.6111234897,-4.589
 9891735,-0.0585388535\H,7.8473261473,-2.4207506677,-0.0581660633\\Vers
 ion=ES64L-G09RevD.01\State=1-A\HF=-562.5062406\RMSD=6.512e-09\RMSF=1.2
 04e-05\Dipole=2.3967747,0.479337,-0.0002261\Quadrupole=-2.9571771,-11.
 0099333,13.9671104,5.4410746,0.0038019,-0.0085995\PG=C01 [X(C12H5N2)]\
 \@


 BULLDOZER: SOMEONE WHO SLEEPS THROUGH SPEECHES.
 Job cpu time:       0 days  0 hours  6 minutes 31.9 seconds.
 File lengths (MBytes):  RWF=      5 Int=      0 D2E=      0 Chk=      2 Scr=      1
 Normal termination of Gaussian 09 at Tue Jun 15 11:20:10 2021.
