 Entering Gaussian System, Link 0=/usr/local/apps//g09/g09
 Input=35.com
 Output=35.out
 Initial command:
 /usr/local/apps//g09/l1.exe "/tmp/bnp.472646.sequoia/Gau-23637.inp" -scrdir="/tmp/bnp.472646.sequoia/"
 Entering Link 1 = /usr/local/apps//g09/l1.exe PID=     23638.
  
 Copyright (c) 1988,1990,1992,1993,1995,1998,2003,2009,2013,
            Gaussian, Inc.  All Rights Reserved.
  
 This is part of the Gaussian(R) 09 program.  It is based on
 the Gaussian(R) 03 system (copyright 2003, Gaussian, Inc.),
 the Gaussian(R) 98 system (copyright 1998, Gaussian, Inc.),
 the Gaussian(R) 94 system (copyright 1995, Gaussian, Inc.),
 the Gaussian 92(TM) system (copyright 1992, Gaussian, Inc.),
 the Gaussian 90(TM) system (copyright 1990, Gaussian, Inc.),
 the Gaussian 88(TM) system (copyright 1988, Gaussian, Inc.),
 the Gaussian 86(TM) system (copyright 1986, Carnegie Mellon
 University), and the Gaussian 82(TM) system (copyright 1983,
 Carnegie Mellon University). Gaussian is a federally registered
 trademark of Gaussian, Inc.
  
 This software contains proprietary and confidential information,
 including trade secrets, belonging to Gaussian, Inc.
  
 This software is provided under written license and may be
 used, copied, transmitted, or stored only in accord with that
 written license.
  
 The following legend is applicable only to US Government
 contracts under FAR:
  
                    RESTRICTED RIGHTS LEGEND
  
 Use, reproduction and disclosure by the US Government is
 subject to restrictions as set forth in subparagraphs (a)
 and (c) of the Commercial Computer Software - Restricted
 Rights clause in FAR 52.227-19.
  
 Gaussian, Inc.
 340 Quinnipiac St., Bldg. 40, Wallingford CT 06492
  
  
 ---------------------------------------------------------------
 Warning -- This program may not be used in any manner that
 competes with the business of Gaussian, Inc. or will provide
 assistance to any competitor of Gaussian, Inc.  The licensee
 of this program is prohibited from giving any competitor of
 Gaussian, Inc. access to this program.  By using this program,
 the user acknowledges that Gaussian, Inc. is engaged in the
 business of creating and licensing software in the field of
 computational chemistry and represents and warrants to the
 licensee that it is not a competitor of Gaussian, Inc. and that
 it will not use this program in any manner prohibited above.
 ---------------------------------------------------------------
  

 Cite this work as:
 Gaussian 09, Revision D.01,
 M. J. Frisch, G. W. Trucks, H. B. Schlegel, G. E. Scuseria, 
 M. A. Robb, J. R. Cheeseman, G. Scalmani, V. Barone, B. Mennucci, 
 G. A. Petersson, H. Nakatsuji, M. Caricato, X. Li, H. P. Hratchian, 
 A. F. Izmaylov, J. Bloino, G. Zheng, J. L. Sonnenberg, M. Hada, 
 M. Ehara, K. Toyota, R. Fukuda, J. Hasegawa, M. Ishida, T. Nakajima, 
 Y. Honda, O. Kitao, H. Nakai, T. Vreven, J. A. Montgomery, Jr., 
 J. E. Peralta, F. Ogliaro, M. Bearpark, J. J. Heyd, E. Brothers, 
 K. N. Kudin, V. N. Staroverov, T. Keith, R. Kobayashi, J. Normand, 
 K. Raghavachari, A. Rendell, J. C. Burant, S. S. Iyengar, J. Tomasi, 
 M. Cossi, N. Rega, J. M. Millam, M. Klene, J. E. Knox, J. B. Cross, 
 V. Bakken, C. Adamo, J. Jaramillo, R. Gomperts, R. E. Stratmann, 
 O. Yazyev, A. J. Austin, R. Cammi, C. Pomelli, J. W. Ochterski, 
 R. L. Martin, K. Morokuma, V. G. Zakrzewski, G. A. Voth, 
 P. Salvador, J. J. Dannenberg, S. Dapprich, A. D. Daniels, 
 O. Farkas, J. B. Foresman, J. V. Ortiz, J. Cioslowski, 
 and D. J. Fox, Gaussian, Inc., Wallingford CT, 2013.
 
 ******************************************
 Gaussian 09:  ES64L-G09RevD.01 24-Apr-2013
                15-Jun-2021 
 ******************************************
 -------------------
 #N B3LYP/STO-3G OPT
 -------------------
 1/14=-1,18=20,19=15,26=3,38=1/1,3;
 2/9=110,12=2,17=6,18=5,40=1/2;
 3/6=3,11=2,16=1,25=1,30=1,71=1,74=-5/1,2,3;
 4//1;
 5/5=2,38=5/2;
 6/7=2,8=2,9=2,10=2,28=1/1;
 7//1,2,3,16;
 1/14=-1,18=20,19=15,26=3/3(2);
 2/9=110/2;
 99//99;
 2/9=110/2;
 3/6=3,11=2,16=1,25=1,30=1,71=1,74=-5/1,2,3;
 4/5=5,16=3,69=1/1;
 5/5=2,38=5/2;
 7//1,2,3,16;
 1/14=-1,18=20,19=15,26=3/3(-5);
 2/9=110/2;
 6/7=2,8=2,9=2,10=2,19=2,28=1/1;
 99/9=1/99;
 -----
 2Naph
 -----
 Symbolic Z-matrix:
 Charge = -1 Multiplicity = 1
 N                     1.10043  -0.22116  -0.07089 
 C                     2.26056  -0.17274  -0.07187 
 C                     4.45481  -1.28239  -0.07358 
 C                     3.69282  -0.10618  -0.07288 
 C                     4.33171   1.13674  -0.0732 
 C                     5.72592   1.20804  -0.07403 
 C                     6.49287   0.03862  -0.07449 
 C                     5.85998  -1.22569  -0.07425 
 C                     6.65632  -2.38487  -0.07468 
 C                     8.05267  -2.29203  -0.07524 
 C                     8.667    -1.03787  -0.07563 
 C                     7.88721   0.11541  -0.07513 
 N                     11.24659  -0.80654  -0.07686 
 C                     10.09054  -0.90826  -0.07634 
 H                     3.9496   -2.24785  -0.0735 
 H                     3.75121   2.05796  -0.07286 
 H                     6.20893   2.18408  -0.07446 
 H                     6.19495  -3.37126  -0.07457 
 H                     8.65158  -3.2013   -0.07546 
 

 GradGradGradGradGradGradGradGradGradGradGradGradGradGradGradGradGradGrad
 Berny optimization.
 Initialization pass.
                           ----------------------------
                           !    Initial Parameters    !
                           ! (Angstroms and Degrees)  !
 --------------------------                            --------------------------
 ! Name  Definition              Value          Derivative Info.                !
 --------------------------------------------------------------------------------
 ! R1    R(1,2)                  1.1611         estimate D2E/DX2                !
 ! R2    R(2,4)                  1.4338         estimate D2E/DX2                !
 ! R3    R(3,4)                  1.4015         estimate D2E/DX2                !
 ! R4    R(3,8)                  1.4063         estimate D2E/DX2                !
 ! R5    R(3,15)                 1.0897         estimate D2E/DX2                !
 ! R6    R(4,5)                  1.3975         estimate D2E/DX2                !
 ! R7    R(5,6)                  1.396          estimate D2E/DX2                !
 ! R8    R(5,16)                 1.0889         estimate D2E/DX2                !
 ! R9    R(6,7)                  1.3985         estimate D2E/DX2                !
 ! R10   R(6,17)                 1.089          estimate D2E/DX2                !
 ! R11   R(7,8)                  1.4139         estimate D2E/DX2                !
 ! R12   R(7,12)                 1.3965         estimate D2E/DX2                !
 ! R13   R(8,9)                  1.4064         estimate D2E/DX2                !
 ! R14   R(9,10)                 1.3994         estimate D2E/DX2                !
 ! R15   R(9,18)                 1.089          estimate D2E/DX2                !
 ! R16   R(10,11)                1.3965         estimate D2E/DX2                !
 ! R17   R(10,19)                1.0888         estimate D2E/DX2                !
 ! R18   R(11,12)                1.3922         estimate D2E/DX2                !
 ! R19   R(11,14)                1.4294         estimate D2E/DX2                !
 ! R20   R(13,14)                1.1605         estimate D2E/DX2                !
 ! A1    A(4,3,8)              120.6259         estimate D2E/DX2                !
 ! A2    A(4,3,15)             119.4411         estimate D2E/DX2                !
 ! A3    A(8,3,15)             119.933          estimate D2E/DX2                !
 ! A4    A(2,4,3)              120.2759         estimate D2E/DX2                !
 ! A5    A(2,4,5)              119.865          estimate D2E/DX2                !
 ! A6    A(3,4,5)              119.8592         estimate D2E/DX2                !
 ! A7    A(4,5,6)              120.1318         estimate D2E/DX2                !
 ! A8    A(4,5,16)             120.579          estimate D2E/DX2                !
 ! A9    A(6,5,16)             119.2892         estimate D2E/DX2                !
 ! A10   A(5,6,7)              120.3308         estimate D2E/DX2                !
 ! A11   A(5,6,17)             119.2569         estimate D2E/DX2                !
 ! A12   A(7,6,17)             120.4123         estimate D2E/DX2                !
 ! A13   A(6,7,8)              120.1499         estimate D2E/DX2                !
 ! A14   A(6,7,12)             120.1061         estimate D2E/DX2                !
 ! A15   A(8,7,12)             119.7439         estimate D2E/DX2                !
 ! A16   A(3,8,7)              118.9024         estimate D2E/DX2                !
 ! A17   A(3,8,9)              122.1778         estimate D2E/DX2                !
 ! A18   A(7,8,9)              118.9198         estimate D2E/DX2                !
 ! A19   A(8,9,10)             120.6846         estimate D2E/DX2                !
 ! A20   A(8,9,18)             120.4443         estimate D2E/DX2                !
 ! A21   A(10,9,18)            118.871          estimate D2E/DX2                !
 ! A22   A(9,10,11)            119.901          estimate D2E/DX2                !
 ! A23   A(9,10,19)            119.5679         estimate D2E/DX2                !
 ! A24   A(11,10,19)           120.5311         estimate D2E/DX2                !
 ! A25   A(10,11,12)           119.8382         estimate D2E/DX2                !
 ! A26   A(10,11,14)           121.2995         estimate D2E/DX2                !
 ! A27   A(12,11,14)           118.8623         estimate D2E/DX2                !
 ! A28   A(7,12,11)            120.9123         estimate D2E/DX2                !
 ! A29   L(1,2,4,16,-1)        179.7292         estimate D2E/DX2                !
 ! A30   L(11,14,13,19,-1)     179.8262         estimate D2E/DX2                !
 ! A31   L(1,2,4,16,-2)        179.9901         estimate D2E/DX2                !
 ! A32   L(11,14,13,19,-2)     180.0035         estimate D2E/DX2                !
 ! D1    D(8,3,4,2)           -179.9848         estimate D2E/DX2                !
 ! D2    D(8,3,4,5)              0.0168         estimate D2E/DX2                !
 ! D3    D(15,3,4,2)             0.009          estimate D2E/DX2                !
 ! D4    D(15,3,4,5)          -179.9894         estimate D2E/DX2                !
 ! D5    D(4,3,8,7)             -0.0131         estimate D2E/DX2                !
 ! D6    D(4,3,8,9)            179.9864         estimate D2E/DX2                !
 ! D7    D(15,3,8,7)           179.9931         estimate D2E/DX2                !
 ! D8    D(15,3,8,9)            -0.0073         estimate D2E/DX2                !
 ! D9    D(2,4,5,6)            179.9928         estimate D2E/DX2                !
 ! D10   D(2,4,5,16)            -0.0105         estimate D2E/DX2                !
 ! D11   D(3,4,5,6)             -0.0088         estimate D2E/DX2                !
 ! D12   D(3,4,5,16)           179.988          estimate D2E/DX2                !
 ! D13   D(4,5,6,7)             -0.0027         estimate D2E/DX2                !
 ! D14   D(4,5,6,17)           179.9885         estimate D2E/DX2                !
 ! D15   D(16,5,6,7)          -179.9995         estimate D2E/DX2                !
 ! D16   D(16,5,6,17)           -0.0083         estimate D2E/DX2                !
 ! D17   D(5,6,7,8)              0.0062         estimate D2E/DX2                !
 ! D18   D(5,6,7,12)          -179.991          estimate D2E/DX2                !
 ! D19   D(17,6,7,8)          -179.9849         estimate D2E/DX2                !
 ! D20   D(17,6,7,12)            0.0179         estimate D2E/DX2                !
 ! D21   D(6,7,8,3)              0.0016         estimate D2E/DX2                !
 ! D22   D(6,7,8,9)           -179.9979         estimate D2E/DX2                !
 ! D23   D(12,7,8,3)           179.9989         estimate D2E/DX2                !
 ! D24   D(12,7,8,9)            -0.0007         estimate D2E/DX2                !
 ! D25   D(6,7,12,11)         -179.9983         estimate D2E/DX2                !
 ! D26   D(8,7,12,11)            0.0045         estimate D2E/DX2                !
 ! D27   D(3,8,9,10)          -179.995          estimate D2E/DX2                !
 ! D28   D(3,8,9,18)             0.0042         estimate D2E/DX2                !
 ! D29   D(7,8,9,10)             0.0045         estimate D2E/DX2                !
 ! D30   D(7,8,9,18)          -179.9962         estimate D2E/DX2                !
 ! D31   D(8,9,10,11)           -0.012          estimate D2E/DX2                !
 ! D32   D(8,9,10,19)          179.9935         estimate D2E/DX2                !
 ! D33   D(18,9,10,11)         179.9887         estimate D2E/DX2                !
 ! D34   D(18,9,10,19)          -0.0057         estimate D2E/DX2                !
 ! D35   D(9,10,11,12)           0.0157         estimate D2E/DX2                !
 ! D36   D(9,10,11,14)        -179.9937         estimate D2E/DX2                !
 ! D37   D(19,10,11,12)       -179.99           estimate D2E/DX2                !
 ! D38   D(19,10,11,14)          0.0007         estimate D2E/DX2                !
 ! D39   D(10,11,12,7)          -0.012          estimate D2E/DX2                !
 ! D40   D(14,11,12,7)         179.9971         estimate D2E/DX2                !
 --------------------------------------------------------------------------------
 Trust Radius=3.00D-01 FncErr=1.00D-07 GrdErr=1.00D-06
 Number of steps in this run=    102 maximum allowed number of steps=    114.
 GradGradGradGradGradGradGradGradGradGradGradGradGradGradGradGradGradGrad

                          Input orientation:                          
 ---------------------------------------------------------------------
 Center     Atomic      Atomic             Coordinates (Angstroms)
 Number     Number       Type             X           Y           Z
 ---------------------------------------------------------------------
      1          7           0        1.100430   -0.221160   -0.070890
      2          6           0        2.260560   -0.172740   -0.071870
      3          6           0        4.454810   -1.282390   -0.073580
      4          6           0        3.692820   -0.106180   -0.072880
      5          6           0        4.331710    1.136740   -0.073200
      6          6           0        5.725920    1.208040   -0.074030
      7          6           0        6.492870    0.038620   -0.074490
      8          6           0        5.859980   -1.225690   -0.074250
      9          6           0        6.656320   -2.384870   -0.074680
     10          6           0        8.052670   -2.292030   -0.075240
     11          6           0        8.667000   -1.037870   -0.075630
     12          6           0        7.887210    0.115410   -0.075130
     13          7           0       11.246590   -0.806540   -0.076860
     14          6           0       10.090540   -0.908260   -0.076340
     15          1           0        3.949600   -2.247850   -0.073500
     16          1           0        3.751210    2.057960   -0.072860
     17          1           0        6.208930    2.184080   -0.074460
     18          1           0        6.194950   -3.371260   -0.074570
     19          1           0        8.651580   -3.201300   -0.075460
 ---------------------------------------------------------------------
                    Distance matrix (angstroms):
                    1          2          3          4          5
     1  N    0.000000
     2  C    1.161140   0.000000
     3  C    3.518250   2.458874   0.000000
     4  C    2.594939   1.433806   1.401463   0.000000
     5  C    3.505006   2.450388   2.422260   1.397509   0.000000
     6  C    4.841258   3.730319   2.796062   2.420882   1.396032
     7  C    5.398695   4.237585   2.428736   2.803792   2.424146
     8  C    4.864402   3.750271   1.406314   2.439239   2.813661
     9  C    5.962346   4.920999   2.462135   3.738284   4.219662
    10  C    7.254113   6.167653   3.736840   4.877114   5.059843
    11  C    7.610520   6.464591   4.219282   5.060684   4.850121
    12  C    6.795122   5.634024   3.706105   4.200240   3.699284
    13  N   10.163034   9.008355   6.808430   7.586169   7.182751
    14  C    9.016330   7.864451   5.648135   6.447803   6.111150
    15  H    3.496462   2.675620   1.089656   2.157009   3.406091
    16  H    3.495858   2.682920   3.413648   2.164928   1.088865
    17  H    5.646412   4.598286   3.885016   3.402367   2.149623
    18  H    5.989764   5.070499   2.718725   4.113564   4.877882
    19  H    8.117951   7.072293   4.614661   5.845432   6.122081
                    6          7          8          9         10
     6  C    0.000000
     7  C    1.398483   0.000000
     8  C    2.437420   1.413870   0.000000
     9  C    3.711421   2.428996   1.406363   0.000000
    10  C    4.202887   2.804444   2.438231   1.399433   0.000000
    11  C    3.700549   2.426041   2.813297   2.420174   1.396538
    12  C    2.421780   1.396453   2.430681   2.786842   2.413119
    13  N    5.876763   4.828266   5.402894   4.854040   3.522472
    14  C    4.850633   3.720190   4.242453   3.738214   2.463277
    15  H    3.885677   3.419966   2.166648   2.710186   4.103308
    16  H    2.149848   3.405060   3.902470   5.308334   6.117596
    17  H    1.089015   2.164167   3.427579   4.590802   4.840965
    18  H    4.603257   3.422870   2.171561   1.088957   2.148456
    19  H    5.291670   3.893214   3.419951   2.155834   1.088791
                   11         12         13         14         15
    11  C    0.000000
    12  C    1.392166   0.000000
    13  N    2.589942   3.483594   0.000000
    14  C    1.429428   2.429519   1.160517   0.000000
    15  H    4.870105   4.592360   7.437973   6.285352   0.000000
    16  H    5.809403   4.569464   8.024095   6.998970   4.310378
    17  H    4.052539   2.663836   5.858484   4.962808   4.974593
    18  H    3.399374   3.875643   5.665409   4.608904   2.510707
    19  H    2.163485   3.403649   3.531141   2.707146   4.797675
                   16         17         18         19
    16  H    0.000000
    17  H    2.460954   0.000000
    18  H    5.953847   5.555358   0.000000
    19  H    7.188425   5.913447   2.462502   0.000000
 Stoichiometry    C12H5N2(1-)
 Framework group  C1[X(C12H5N2)]
 Deg. of freedom    51
 Full point group                 C1      NOp   1
 Largest Abelian subgroup         C1      NOp   1
 Largest concise Abelian subgroup C1      NOp   1
                         Standard orientation:                         
 ---------------------------------------------------------------------
 Center     Atomic      Atomic             Coordinates (Angstroms)
 Number     Number       Type             X           Y           Z
 ---------------------------------------------------------------------
      1          7           0       -5.052969    0.401715   -0.000456
      2          6           0       -3.913364    0.179121   -0.000128
      3          6           0       -1.577019    0.945640    0.000304
      4          6           0       -2.507465   -0.102391    0.000077
      5          6           0       -2.063058   -1.427356    0.000083
      6          6           0       -0.695489   -1.707824    0.000130
      7          6           0        0.238838   -0.667253    0.000114
      8          6           0       -0.196416    0.677955    0.000184
      9          6           0        0.765423    1.703976    0.000122
     10          6           0        2.131863    1.401892   -0.000101
     11          6           0        2.550298    0.069514   -0.000011
     12          6           0        1.605708   -0.953167   -0.000029
     13          7           0        5.065623   -0.547687   -0.000226
     14          6           0        3.938080   -0.273016   -0.000099
     15          1           0       -1.931059    1.976176    0.000473
     16          1           0       -2.775681   -2.250640    0.000104
     17          1           0       -0.364989   -2.745476    0.000324
     18          1           0        0.457875    2.748602    0.000236
     19          1           0        2.860886    2.210589   -0.000252
 ---------------------------------------------------------------------
 Rotational constants (GHZ):      2.6975264      0.3507615      0.3104000
 Standard basis: STO-3G (5D, 7F)
 There are    75 symmetry adapted cartesian basis functions of A   symmetry.
 There are    75 symmetry adapted basis functions of A   symmetry.
    75 basis functions,   225 primitive gaussians,    75 cartesian basis functions
    46 alpha electrons       46 beta electrons
       nuclear repulsion energy       694.8392715300 Hartrees.
 NAtoms=   19 NActive=   19 NUniq=   19 SFac= 1.00D+00 NAtFMM=   60 NAOKFM=F Big=F
 Integral buffers will be    131072 words long.
 Raffenetti 2 integral format.
 Two-electron integral symmetry is turned on.
 One-electron integrals computed using PRISM.
 NBasis=    75 RedAO= T EigKep=  1.55D-01  NBF=    75
 NBsUse=    75 1.00D-06 EigRej= -1.00D+00 NBFU=    75
 ExpMin= 1.69D-01 ExpMax= 9.91D+01 ExpMxC= 9.91D+01 IAcc=1 IRadAn=         1 AccDes= 0.00D+00
 Harris functional with IExCor=  402 and IRadAn=       1 diagonalized for initial guess.
 HarFok:  IExCor=  402 AccDes= 0.00D+00 IRadAn=         1 IDoV= 1 UseB2=F ITyADJ=14
 ICtDFT=  3500011 ScaDFX=  1.000000  1.000000  1.000000  1.000000
 FoFCou: FMM=F IPFlag=           0 FMFlag=      100000 FMFlg1=           0
         NFxFlg=           0 DoJE=T BraDBF=F KetDBF=T FulRan=T
         wScrn=  0.000000 ICntrl=     500 IOpCl=  0 I1Cent=   200000004 NGrid=           0
         NMat0=    1 NMatS0=      1 NMatT0=    0 NMatD0=    1 NMtDS0=    0 NMtDT0=    0
 Petite list used in FoFCou.
 Keep R1 ints in memory in canonical form, NReq=4993994.
 Requested convergence on RMS density matrix=1.00D-08 within 128 cycles.
 Requested convergence on MAX density matrix=1.00D-06.
 Requested convergence on             energy=1.00D-06.
 No special actions if energy rises.
 Integral accuracy reduced to 1.0D-05 until final iterations.
 EnCoef did     5 forward-backward iterations
 EnCoef did     4 forward-backward iterations
 EnCoef did   100 forward-backward iterations
 Initial convergence to 1.0D-05 achieved.  Increase integral accuracy.
 SCF Done:  E(RB3LYP) =  -562.484603272     A.U. after   27 cycles
            NFock= 27  Conv=0.74D-08     -V/T= 2.0127

 **********************************************************************

            Population analysis using the SCF density.

 **********************************************************************

 Orbital symmetries:
       Occupied  (A) (A) (A) (A) (A) (A) (A) (A) (A) (A) (A) (A)
                 (A) (A) (A) (A) (A) (A) (A) (A) (A) (A) (A) (A)
                 (A) (A) (A) (A) (A) (A) (A) (A) (A) (A) (A) (A)
                 (A) (A) (A) (A) (A) (A) (A) (A) (A) (A)
       Virtual   (A) (A) (A) (A) (A) (A) (A) (A) (A) (A) (A) (A)
                 (A) (A) (A) (A) (A) (A) (A) (A) (A) (A) (A) (A)
                 (A) (A) (A) (A) (A)
 The electronic state is 1-A.
 Alpha  occ. eigenvalues --  -14.00631 -13.93713  -9.91397  -9.91207  -9.87981
 Alpha  occ. eigenvalues --   -9.87237  -9.86503  -9.86364  -9.84905  -9.84662
 Alpha  occ. eigenvalues --   -9.83488  -9.83240  -9.82784  -9.65132  -0.75654
 Alpha  occ. eigenvalues --   -0.69873  -0.68639  -0.63059  -0.58188  -0.56571
 Alpha  occ. eigenvalues --   -0.51190  -0.46396  -0.43257  -0.39512  -0.36109
 Alpha  occ. eigenvalues --   -0.33722  -0.30710  -0.26909  -0.25602  -0.24098
 Alpha  occ. eigenvalues --   -0.22227  -0.21566  -0.20915  -0.17838  -0.17229
 Alpha  occ. eigenvalues --   -0.16568  -0.15194  -0.14876  -0.13913  -0.10871
 Alpha  occ. eigenvalues --   -0.10807  -0.09276  -0.07393  -0.03966   0.02080
 Alpha  occ. eigenvalues --    0.14693
 Alpha virt. eigenvalues --    0.17262   0.21019   0.26148   0.27307   0.30633
 Alpha virt. eigenvalues --    0.32267   0.34760   0.40624   0.44348   0.49748
 Alpha virt. eigenvalues --    0.50798   0.52447   0.55535   0.56865   0.59624
 Alpha virt. eigenvalues --    0.61886   0.64507   0.65101   0.69869   0.73173
 Alpha virt. eigenvalues --    0.74319   0.78773   0.82413   0.85984   0.88207
 Alpha virt. eigenvalues --    0.98881   1.00316   1.13075   1.19596
          Condensed to atoms (all electrons):
               1          2          3          4          5          6
     1  N    6.571178   0.688175  -0.000166  -0.011378  -0.000139  -0.000001
     2  C    0.688175   4.890994  -0.030617   0.426923  -0.031815   0.001024
     3  C   -0.000166  -0.030617   4.838942   0.507163  -0.031620  -0.011007
     4  C   -0.011378   0.426923   0.507163   4.751763   0.481730  -0.029412
     5  C   -0.000139  -0.031815  -0.031620   0.481730   4.842456   0.514014
     6  C   -0.000001   0.001024  -0.011007  -0.029412   0.514014   4.826738
     7  C    0.000000   0.000015  -0.027672  -0.010782  -0.030270   0.482472
     8  C   -0.000001   0.000977   0.478951  -0.029029  -0.009576  -0.037196
     9  C    0.000000  -0.000007  -0.032496   0.000890   0.000046   0.000985
    10  C    0.000000   0.000000   0.000904  -0.000009   0.000001  -0.000021
    11  C    0.000000   0.000000   0.000058   0.000001  -0.000018   0.001443
    12  C    0.000000   0.000000   0.001212   0.000035   0.001086  -0.041660
    13  N    0.000000   0.000000   0.000000   0.000000   0.000000   0.000000
    14  C    0.000000   0.000000   0.000000   0.000000   0.000000  -0.000002
    15  H    0.000061  -0.003737   0.386409  -0.026899   0.001413   0.000011
    16  H    0.000060  -0.003759   0.001396  -0.026062   0.390136  -0.025829
    17  H    0.000000  -0.000020   0.000025   0.001463  -0.026961   0.388796
    18  H    0.000000  -0.000001  -0.004016   0.000017  -0.000001  -0.000024
    19  H    0.000000   0.000000  -0.000015   0.000000   0.000000   0.000002
               7          8          9         10         11         12
     1  N    0.000000  -0.000001   0.000000   0.000000   0.000000   0.000000
     2  C    0.000015   0.000977  -0.000007   0.000000   0.000000   0.000000
     3  C   -0.027672   0.478951  -0.032496   0.000904   0.000058   0.001212
     4  C   -0.010782  -0.029029   0.000890  -0.000009   0.000001   0.000035
     5  C   -0.030270  -0.009576   0.000046   0.000001  -0.000018   0.001086
     6  C    0.482472  -0.037196   0.000985  -0.000021   0.001443  -0.041660
     7  C    4.823638   0.447705  -0.033228  -0.012162  -0.028712   0.453041
     8  C    0.447705   4.802207   0.485015  -0.026910  -0.012142  -0.031099
     9  C   -0.033228   0.485015   4.863939   0.522701  -0.032830  -0.013088
    10  C   -0.012162  -0.026910   0.522701   4.848748   0.469479  -0.030121
    11  C   -0.028712  -0.012142  -0.032830   0.469479   4.823511   0.479766
    12  C    0.453041  -0.031099  -0.013088  -0.030121   0.479766   5.433893
    13  N   -0.000002   0.000000  -0.000001   0.000022  -0.011553  -0.000098
    14  C    0.001426  -0.000027   0.000944  -0.040232   0.420931  -0.037675
    15  H    0.001419  -0.024921  -0.003746   0.000016  -0.000003  -0.000032
    16  H    0.001482   0.000019   0.000001   0.000000   0.000000  -0.000025
    17  H   -0.024131   0.001554  -0.000018   0.000000   0.000031  -0.001958
    18  H    0.001357  -0.026138   0.390061  -0.027122   0.001414   0.000030
    19  H    0.000097   0.001412  -0.027014   0.380383  -0.025215   0.001650
              13         14         15         16         17         18
     1  N    0.000000   0.000000   0.000061   0.000060   0.000000   0.000000
     2  C    0.000000   0.000000  -0.003737  -0.003759  -0.000020  -0.000001
     3  C    0.000000   0.000000   0.386409   0.001396   0.000025  -0.004016
     4  C    0.000000   0.000000  -0.026899  -0.026062   0.001463   0.000017
     5  C    0.000000   0.000000   0.001413   0.390136  -0.026961  -0.000001
     6  C    0.000000  -0.000002   0.000011  -0.025829   0.388796  -0.000024
     7  C   -0.000002   0.001426   0.001419   0.001482  -0.024131   0.001357
     8  C    0.000000  -0.000027  -0.024921   0.000019   0.001554  -0.026138
     9  C   -0.000001   0.000944  -0.003746   0.000001  -0.000018   0.390061
    10  C    0.000022  -0.040232   0.000016   0.000000   0.000000  -0.027122
    11  C   -0.011553   0.420931  -0.000003   0.000000   0.000031   0.001414
    12  C   -0.000098  -0.037675  -0.000032  -0.000025  -0.001958   0.000030
    13  N    6.614777   0.686432   0.000000   0.000000   0.000000   0.000000
    14  C    0.686432   4.915582   0.000000   0.000000  -0.000002  -0.000022
    15  H    0.000000   0.000000   0.607109  -0.000039   0.000003   0.001026
    16  H    0.000000   0.000000  -0.000039   0.607962  -0.004016   0.000000
    17  H    0.000000  -0.000002   0.000003  -0.004016   0.590943   0.000001
    18  H    0.000000  -0.000022   0.001026   0.000000   0.000001   0.627248
    19  H    0.000041  -0.002454  -0.000003   0.000000   0.000000  -0.004112
              19
     1  N    0.000000
     2  C    0.000000
     3  C   -0.000015
     4  C    0.000000
     5  C    0.000000
     6  C    0.000002
     7  C    0.000097
     8  C    0.001412
     9  C   -0.027014
    10  C    0.380383
    11  C   -0.025215
    12  C    0.001650
    13  N    0.000041
    14  C   -0.002454
    15  H   -0.000003
    16  H    0.000000
    17  H    0.000000
    18  H   -0.004112
    19  H    0.629808
 Mulliken charges:
               1
     1  N   -0.247788
     2  C    0.061847
     3  C   -0.077451
     4  C   -0.036414
     5  C   -0.100484
     6  C   -0.070332
     7  C   -0.045693
     8  C   -0.020801
     9  C   -0.122153
    10  C   -0.085676
    11  C   -0.086163
    12  C   -0.214956
    13  N   -0.289617
    14  C    0.055099
    15  H    0.061915
    16  H    0.058674
    17  H    0.074292
    18  H    0.040283
    19  H    0.045420
 Sum of Mulliken charges =  -1.00000
 Mulliken charges with hydrogens summed into heavy atoms:
               1
     1  N   -0.247788
     2  C    0.061847
     3  C   -0.015536
     4  C   -0.036414
     5  C   -0.041810
     6  C    0.003959
     7  C   -0.045693
     8  C   -0.020801
     9  C   -0.081870
    10  C   -0.040256
    11  C   -0.086163
    12  C   -0.214956
    13  N   -0.289617
    14  C    0.055099
 Electronic spatial extent (au):  <R**2>=           3217.1275
 Charge=             -1.0000 electrons
 Dipole moment (field-independent basis, Debye):
    X=             -4.4362    Y=              2.1671    Z=              0.0011  Tot=              4.9372
 Quadrupole moment (field-independent basis, Debye-Ang):
   XX=           -150.3524   YY=            -76.5684   ZZ=            -73.7925
   XY=             11.5641   XZ=             -0.0018   YZ=             -0.0005
 Traceless Quadrupole moment (field-independent basis, Debye-Ang):
   XX=            -50.1146   YY=             23.6694   ZZ=             26.4452
   XY=             11.5641   XZ=             -0.0018   YZ=             -0.0005
 Octapole moment (field-independent basis, Debye-Ang**2):
  XXX=            -42.0782  YYY=              4.7464  ZZZ=             -0.0020  XYY=            -13.2786
  XXY=             17.3316  XXZ=              0.0306  XZZ=              0.1726  YZZ=             -0.5311
  YYZ=              0.0019  XYZ=             -0.0046
 Hexadecapole moment (field-independent basis, Debye-Ang**3):
 XXXX=          -5667.5354 YYYY=           -558.5800 ZZZZ=            -57.9511 XXXY=            259.6064
 XXXZ=             -0.0536 YYYX=              9.7500 YYYZ=             -0.0027 ZZZX=              0.0033
 ZZZY=             -0.0005 XXYY=           -687.1291 XXZZ=           -577.2050 YYZZ=           -109.8392
 XXYZ=              0.0011 YYXZ=             -0.0008 ZZXY=             -5.2094
 N-N= 6.948392715300D+02 E-N=-2.712037632155D+03  KE= 5.554198283585D+02
 Calling FoFJK, ICntrl=      2127 FMM=F ISym2X=0 I1Cent= 0 IOpClX= 0 NMat=1 NMatS=1 NMatT=0.
 ***** Axes restored to original set *****
 -------------------------------------------------------------------
 Center     Atomic                   Forces (Hartrees/Bohr)
 Number     Number              X              Y              Z
 -------------------------------------------------------------------
      1        7          -0.100212956   -0.004219688    0.000079421
      2        6           0.075627731    0.002041917   -0.000063050
      3        6          -0.020593532   -0.004775958    0.000018642
      4        6           0.002297988   -0.025328871   -0.000016273
      5        6           0.022438979    0.036119647   -0.000011415
      6        6          -0.037760741    0.016043499    0.000015023
      7        6           0.019759572   -0.018224988   -0.000000938
      8        6          -0.026753767   -0.014402111    0.000000895
      9        6           0.027973227   -0.025503980   -0.000008826
     10        6          -0.019490515   -0.033499032   -0.000009154
     11        6          -0.038101039    0.011735430    0.000029941
     12        6           0.067338918    0.076101213   -0.000042810
     13        7           0.103070767    0.010771092   -0.000048620
     14        6          -0.068072250   -0.012841185    0.000031740
     15        1          -0.005082800   -0.006658798    0.000004375
     16        1          -0.006595133    0.003864794    0.000006205
     17        1           0.006497468    0.005207818    0.000005272
     18        1          -0.005295121   -0.004232664    0.000008884
     19        1           0.002953204   -0.012198135    0.000000688
 -------------------------------------------------------------------
 Cartesian Forces:  Max     0.103070767 RMS     0.030436933

 GradGradGradGradGradGradGradGradGradGradGradGradGradGradGradGradGradGrad
 Berny optimization.
 FormGI is forming the generalized inverse of G from B-inverse, IUseBI=4.
 Internal  Forces:  Max     0.103616802 RMS     0.021640524
 Search for a local minimum.
 Step number   1 out of a maximum of  102
 All quantities printed in internal units (Hartrees-Bohrs-Radians)
 Mixed Optimization -- RFO/linear search
 Second derivative matrix not updated -- first step.
 ITU=  0
     Eigenvalues ---    0.01642   0.01642   0.01986   0.01991   0.02029
     Eigenvalues ---    0.02039   0.02051   0.02072   0.02090   0.02095
     Eigenvalues ---    0.02115   0.02122   0.02124   0.02132   0.02148
     Eigenvalues ---    0.02158   0.04860   0.04860   0.16000   0.16000
     Eigenvalues ---    0.16000   0.16000   0.16000   0.22334   0.22608
     Eigenvalues ---    0.23517   0.24429   0.24683   0.25000   0.25000
     Eigenvalues ---    0.25000   0.34852   0.34927   0.34933   0.34944
     Eigenvalues ---    0.34953   0.38612   0.40447   0.41072   0.41319
     Eigenvalues ---    0.42234   0.43522   0.44606   0.45363   0.45598
     Eigenvalues ---    0.45634   0.45982   0.46103   0.46592   1.27050
     Eigenvalues ---    1.27456
 RFO step:  Lambda=-6.56014694D-02 EMin= 1.64156570D-02
 Linear search not attempted -- first point.
 Maximum step size (   0.300) exceeded in Quadratic search.
    -- Step size scaled by   0.829
 Iteration  1 RMS(Cart)=  0.04982278 RMS(Int)=  0.00104516
 Iteration  2 RMS(Cart)=  0.00213981 RMS(Int)=  0.00029935
 Iteration  3 RMS(Cart)=  0.00000095 RMS(Int)=  0.00029935
 Variable       Old X    -DE/DX   Delta X   Delta X   Delta X     New X
                                 (Linear)    (Quad)   (Total)
    R1        2.19424   0.10030   0.00000   0.06227   0.06227   2.25650
    R2        2.70950   0.02466   0.00000   0.04351   0.04351   2.75301
    R3        2.64838   0.00775   0.00000   0.01127   0.01106   2.65944
    R4        2.65755   0.02896   0.00000   0.04774   0.04767   2.70522
    R5        2.05915   0.00825   0.00000   0.01653   0.01653   2.07568
    R6        2.64091   0.03960   0.00000   0.06059   0.06044   2.70135
    R7        2.63812   0.00303   0.00000   0.00397   0.00404   2.64215
    R8        2.05766   0.00679   0.00000   0.01356   0.01356   2.07122
    R9        2.64275   0.04116   0.00000   0.06620   0.06641   2.70916
   R10        2.05794   0.00755   0.00000   0.01510   0.01510   2.07304
   R11        2.67183   0.05477   0.00000   0.09456   0.09454   2.76637
   R12        2.63891   0.05793   0.00000   0.09363   0.09403   2.73294
   R13        2.65764   0.02602   0.00000   0.04110   0.04051   2.69815
   R14        2.64455  -0.00801   0.00000  -0.01533  -0.01574   2.62880
   R15        2.05783   0.00608   0.00000   0.01215   0.01215   2.06999
   R16        2.63907   0.05163   0.00000   0.07962   0.07979   2.71887
   R17        2.05752   0.01181   0.00000   0.02360   0.02360   2.08112
   R18        2.63081   0.03018   0.00000   0.04782   0.04840   2.67922
   R19        2.70123   0.03466   0.00000   0.06036   0.06036   2.76159
   R20        2.19306   0.10362   0.00000   0.06413   0.06413   2.25719
    A1        2.10532   0.00032   0.00000   0.00059   0.00025   2.10557
    A2        2.08464  -0.00162   0.00000  -0.00568  -0.00550   2.07914
    A3        2.09323   0.00130   0.00000   0.00509   0.00526   2.09848
    A4        2.09921  -0.00272   0.00000  -0.00475  -0.00453   2.09468
    A5        2.09204   0.00008   0.00000   0.00262   0.00284   2.09488
    A6        2.09194   0.00264   0.00000   0.00212   0.00170   2.09363
    A7        2.09670   0.00138   0.00000  -0.00074  -0.00088   2.09582
    A8        2.10450  -0.00430   0.00000  -0.01291  -0.01284   2.09166
    A9        2.08199   0.00292   0.00000   0.01365   0.01372   2.09571
   A10        2.10017   0.01101   0.00000   0.03276   0.03299   2.13316
   A11        2.08142  -0.00188   0.00000  -0.00307  -0.00318   2.07825
   A12        2.10159  -0.00913   0.00000  -0.02970  -0.02981   2.07178
   A13        2.09701  -0.02026   0.00000  -0.05174  -0.05152   2.04549
   A14        2.09625  -0.00253   0.00000  -0.01300  -0.01327   2.08298
   A15        2.08993   0.02278   0.00000   0.06474   0.06479   2.15471
   A16        2.07524   0.00490   0.00000   0.01701   0.01747   2.09271
   A17        2.13241  -0.00225   0.00000  -0.00892  -0.00850   2.12391
   A18        2.07554  -0.00266   0.00000  -0.00809  -0.00897   2.06657
   A19        2.10634  -0.00366   0.00000  -0.01704  -0.01815   2.08819
   A20        2.10215  -0.00126   0.00000  -0.00286  -0.00231   2.09984
   A21        2.07469   0.00493   0.00000   0.01990   0.02046   2.09515
   A22        2.09267   0.00620   0.00000   0.01064   0.01030   2.10297
   A23        2.08685  -0.00747   0.00000  -0.02140  -0.02123   2.06562
   A24        2.10366   0.00128   0.00000   0.01076   0.01093   2.11459
   A25        2.09157   0.02861   0.00000   0.07471   0.07543   2.16700
   A26        2.11708  -0.01956   0.00000  -0.05116  -0.05152   2.06556
   A27        2.07454  -0.00905   0.00000  -0.02355  -0.02391   2.05063
   A28        2.11032  -0.05127   0.00000  -0.12496  -0.12339   1.98692
   A29        3.13687   0.00006   0.00000   0.00057   0.00057   3.13744
   A30        3.13856   0.00369   0.00000   0.02682   0.02682   3.16538
   A31        3.14142   0.00001   0.00000   0.00009   0.00009   3.14151
   A32        3.14165   0.00000   0.00000  -0.00003  -0.00003   3.14163
    D1       -3.14133  -0.00001   0.00000  -0.00005  -0.00005  -3.14138
    D2        0.00029  -0.00001   0.00000  -0.00007  -0.00007   0.00023
    D3        0.00016   0.00000   0.00000  -0.00001  -0.00001   0.00014
    D4       -3.14141   0.00000   0.00000  -0.00003  -0.00003  -3.14144
    D5       -0.00023   0.00000   0.00000   0.00004   0.00004  -0.00019
    D6        3.14136   0.00000   0.00000   0.00003   0.00003   3.14139
    D7        3.14147   0.00000   0.00000   0.00001   0.00001   3.14148
    D8       -0.00013   0.00000   0.00000   0.00000   0.00000  -0.00013
    D9        3.14147   0.00000   0.00000   0.00002   0.00002   3.14149
   D10       -0.00018   0.00000   0.00000   0.00003   0.00003  -0.00016
   D11       -0.00015   0.00000   0.00000   0.00004   0.00004  -0.00012
   D12        3.14138   0.00000   0.00000   0.00004   0.00004   3.14143
   D13       -0.00005   0.00000   0.00000   0.00001   0.00001  -0.00004
   D14        3.14139   0.00000   0.00000   0.00003   0.00003   3.14142
   D15       -3.14158   0.00000   0.00000   0.00001   0.00001  -3.14158
   D16       -0.00014   0.00000   0.00000   0.00002   0.00002  -0.00012
   D17        0.00011   0.00000   0.00000  -0.00003  -0.00003   0.00007
   D18       -3.14144  -0.00001   0.00000  -0.00005  -0.00005  -3.14149
   D19       -3.14133  -0.00001   0.00000  -0.00006  -0.00006  -3.14138
   D20        0.00031  -0.00001   0.00000  -0.00007  -0.00007   0.00024
   D21        0.00003   0.00000   0.00000   0.00001   0.00001   0.00004
   D22       -3.14156   0.00000   0.00000   0.00002   0.00002  -3.14154
   D23        3.14157   0.00000   0.00000   0.00002   0.00002  -3.14159
   D24       -0.00001   0.00000   0.00000   0.00003   0.00003   0.00002
   D25       -3.14156   0.00000   0.00000  -0.00002  -0.00002  -3.14158
   D26        0.00008   0.00000   0.00000  -0.00003  -0.00003   0.00004
   D27       -3.14151   0.00000   0.00000  -0.00003  -0.00003  -3.14154
   D28        0.00007   0.00000   0.00000  -0.00003  -0.00003   0.00005
   D29        0.00008   0.00000   0.00000  -0.00004  -0.00004   0.00004
   D30       -3.14153   0.00000   0.00000  -0.00004  -0.00004  -3.14156
   D31       -0.00021   0.00001   0.00000   0.00006   0.00005  -0.00016
   D32        3.14148   0.00000   0.00000   0.00001   0.00001   3.14149
   D33        3.14140   0.00001   0.00000   0.00005   0.00005   3.14144
   D34       -0.00010   0.00000   0.00000   0.00001   0.00001  -0.00009
   D35        0.00027   0.00000   0.00000  -0.00004  -0.00004   0.00023
   D36       -3.14148   0.00000   0.00000   0.00000   0.00000  -3.14148
   D37       -3.14142   0.00000   0.00000   0.00000   0.00000  -3.14142
   D38        0.00001   0.00001   0.00000   0.00004   0.00004   0.00006
   D39       -0.00021   0.00001   0.00000   0.00004   0.00004  -0.00017
   D40        3.14154   0.00000   0.00000   0.00000   0.00000   3.14154
         Item               Value     Threshold  Converged?
 Maximum Force            0.103617     0.000450     NO 
 RMS     Force            0.021641     0.000300     NO 
 Maximum Displacement     0.197793     0.001800     NO 
 RMS     Displacement     0.048652     0.001200     NO 
 Predicted change in Energy=-3.478188D-02
 GradGradGradGradGradGradGradGradGradGradGradGradGradGradGradGradGradGrad

                          Input orientation:                          
 ---------------------------------------------------------------------
 Center     Atomic      Atomic             Coordinates (Angstroms)
 Number     Number       Type             X           Y           Z
 ---------------------------------------------------------------------
      1          7           0        1.018103   -0.249144   -0.071023
      2          6           0        2.210734   -0.190133   -0.071897
      3          6           0        4.433735   -1.291204   -0.073526
      4          6           0        3.665470   -0.112094   -0.072870
      5          6           0        4.313487    1.162081   -0.073173
      6          6           0        5.709576    1.238293   -0.073980
      7          6           0        6.538938    0.068919   -0.074486
      8          6           0        5.863971   -1.230089   -0.074219
      9          6           0        6.665231   -2.411862   -0.074645
     10          6           0        8.052059   -2.302881   -0.075251
     11          6           0        8.682727   -1.009707   -0.075644
     12          6           0        7.977228    0.220078   -0.075181
     13          7           0       11.334815   -0.872460   -0.077026
     14          6           0       10.142869   -0.949796   -0.076422
     15          1           0        3.921666   -2.262943   -0.073431
     16          1           0        3.713334    2.079210   -0.072819
     17          1           0        6.189610    2.224693   -0.074367
     18          1           0        6.192793   -3.400133   -0.074489
     19          1           0        8.649353   -3.228116   -0.075474
 ---------------------------------------------------------------------
                    Distance matrix (angstroms):
                    1          2          3          4          5
     1  N    0.000000
     2  C    1.194090   0.000000
     3  C    3.571056   2.480745   0.000000
     4  C    2.650913   1.456829   1.407314   0.000000
     5  C    3.584845   2.500011   2.456230   1.429492   0.000000
     6  C    4.921625   3.779194   2.833042   2.449880   1.398168
     7  C    5.529990   4.335950   2.506354   2.879163   2.479443
     8  C    4.944159   3.798376   1.431541   2.466439   2.850698
     9  C    6.047101   4.977815   2.497088   3.779881   4.278291
    10  C    7.327646   6.211666   3.757095   4.903235   5.097341
    11  C    7.702268   6.523681   4.258306   5.096919   4.879234
    12  C    6.974927   5.781067   3.852313   4.324534   3.782905
    13  N   10.335526   9.149561   6.913773   7.706946   7.310159
    14  C    9.151628   7.968430   5.719333   6.531343   6.200139
    15  H    3.533564   2.687719   1.098404   2.166053   3.447363
    16  H    3.561672   2.721714   3.446544   2.191827   1.096042
    17  H    5.732745   4.654337   3.929966   3.439747   2.156151
    18  H    6.058562   5.114773   2.746246   4.147115   4.934125
    19  H    8.192086   7.119352   4.639295   5.877813   6.170378
                    6          7          8          9         10
     6  C    0.000000
     7  C    1.433624   0.000000
     8  C    2.473206   1.463899   0.000000
     9  C    3.773183   2.483994   1.427798   0.000000
    10  C    4.245839   2.813356   2.436927   1.391103   0.000000
    11  C    3.727350   2.399847   2.827358   2.456894   1.438763
    12  C    2.485761   1.446212   2.562974   2.940824   2.524068
    13  N    6.008211   4.887396   5.482521   4.916785   3.580865
    14  C    4.943868   3.745144   4.288069   3.772480   2.490447
    15  H    3.931320   3.505380   2.199850   2.747604   4.130586
    16  H    2.166131   3.467752   3.946733   5.374330   6.166625
    17  H    1.097004   2.183894   3.470095   4.660887   4.895676
    18  H    4.663529   3.486278   2.194816   1.095389   2.158896
    19  H    5.347065   3.914625   3.427895   2.145462   1.101281
                   11         12         13         14         15
    11  C    0.000000
    12  C    1.417780   0.000000
    13  N    2.655638   3.530869   0.000000
    14  C    1.461371   2.461424   1.194453   0.000000
    15  H    4.923241   4.755310   7.542429   6.358280   0.000000
    16  H    5.851177   4.651577   8.173086   7.107306   4.347148
    17  H    4.083746   2.685901   6.005455   5.070073   5.028166
    18  H    3.451652   4.036104   5.729706   4.648360   2.539925
    19  H    2.218660   3.513089   3.572230   2.724212   4.825203
                   16         17         18         19
    16  H    0.000000
    17  H    2.480546   0.000000
    18  H    6.014226   5.624828   0.000000
    19  H    7.247896   5.981928   2.462575   0.000000
 Stoichiometry    C12H5N2(1-)
 Framework group  C1[X(C12H5N2)]
 Deg. of freedom    51
 Full point group                 C1      NOp   1
 Largest Abelian subgroup         C1      NOp   1
 Largest concise Abelian subgroup C1      NOp   1
                         Standard orientation:                         
 ---------------------------------------------------------------------
 Center     Atomic      Atomic             Coordinates (Angstroms)
 Number     Number       Type             X           Y           Z
 ---------------------------------------------------------------------
      1          7           0       -5.136033    0.431608   -0.000302
      2          6           0       -3.965415    0.196016   -0.000096
      3          6           0       -1.603467    0.954501    0.000245
      4          6           0       -2.538428   -0.097344    0.000062
      5          6           0       -2.086962   -1.453672    0.000045
      6          6           0       -0.717701   -1.736510    0.000071
      7          6           0        0.276232   -0.703372    0.000069
      8          6           0       -0.198195    0.681518    0.000136
      9          6           0        0.769791    1.731094    0.000071
     10          6           0        2.125024    1.417227   -0.000099
     11          6           0        2.556511    0.044689   -0.000016
     12          6           0        1.676088   -1.066596   -0.000039
     13          7           0        5.158754   -0.485160   -0.000119
     14          6           0        3.991536   -0.231548   -0.000056
     15          1           0       -1.965441    1.991548    0.000404
     16          1           0       -2.816745   -2.271429    0.000061
     17          1           0       -0.389585   -2.783296    0.000222
     18          1           0        0.449466    2.778600    0.000146
     19          1           0        2.853184    2.243424   -0.000244
 ---------------------------------------------------------------------
 Rotational constants (GHZ):      2.5971722      0.3405739      0.3010911
 Standard basis: STO-3G (5D, 7F)
 There are    75 symmetry adapted cartesian basis functions of A   symmetry.
 There are    75 symmetry adapted basis functions of A   symmetry.
    75 basis functions,   225 primitive gaussians,    75 cartesian basis functions
    46 alpha electrons       46 beta electrons
       nuclear repulsion energy       683.0987291245 Hartrees.
 NAtoms=   19 NActive=   19 NUniq=   19 SFac= 1.00D+00 NAtFMM=   60 NAOKFM=F Big=F
 Integral buffers will be    131072 words long.
 Raffenetti 2 integral format.
 Two-electron integral symmetry is turned on.
 One-electron integrals computed using PRISM.
 NBasis=    75 RedAO= T EigKep=  1.73D-01  NBF=    75
 NBsUse=    75 1.00D-06 EigRej= -1.00D+00 NBFU=    75
 Initial guess from the checkpoint file:  "/tmp/bnp.472646.sequoia/Gau-23638.chk"
 B after Tr=     0.000000    0.000000    0.000000
         Rot=    0.999999   -0.000002    0.000000   -0.001129 Ang=  -0.13 deg.
 ExpMin= 1.69D-01 ExpMax= 9.91D+01 ExpMxC= 9.91D+01 IAcc=1 IRadAn=         1 AccDes= 0.00D+00
 Harris functional with IExCor=  402 and IRadAn=       1 diagonalized for initial guess.
 HarFok:  IExCor=  402 AccDes= 0.00D+00 IRadAn=         1 IDoV= 1 UseB2=F ITyADJ=14
 ICtDFT=  3500011 ScaDFX=  1.000000  1.000000  1.000000  1.000000
 FoFCou: FMM=F IPFlag=           0 FMFlag=      100000 FMFlg1=           0
         NFxFlg=           0 DoJE=T BraDBF=F KetDBF=T FulRan=T
         wScrn=  0.000000 ICntrl=     500 IOpCl=  0 I1Cent=   200000004 NGrid=           0
         NMat0=    1 NMatS0=      1 NMatT0=    0 NMatD0=    1 NMtDS0=    0 NMtDT0=    0
 Petite list used in FoFCou.
 Keep R1 ints in memory in canonical form, NReq=4993994.
 Requested convergence on RMS density matrix=1.00D-08 within 128 cycles.
 Requested convergence on MAX density matrix=1.00D-06.
 Requested convergence on             energy=1.00D-06.
 No special actions if energy rises.
 Integral accuracy reduced to 1.0D-05 until final iterations.
 Initial convergence to 1.0D-05 achieved.  Increase integral accuracy.
 SCF Done:  E(RB3LYP) =  -562.517836783     A.U. after   15 cycles
            NFock= 15  Conv=0.58D-08     -V/T= 2.0138
 Calling FoFJK, ICntrl=      2127 FMM=F ISym2X=0 I1Cent= 0 IOpClX= 0 NMat=1 NMatS=1 NMatT=0.
 ***** Axes restored to original set *****
 -------------------------------------------------------------------
 Center     Atomic                   Forces (Hartrees/Bohr)
 Number     Number              X              Y              Z
 -------------------------------------------------------------------
      1        7          -0.013061090   -0.000755302    0.000008032
      2        6           0.008309372    0.000745785   -0.000008121
      3        6          -0.002230484    0.002394188    0.000008231
      4        6           0.001557945   -0.007949661   -0.000008332
      5        6           0.011651966    0.010559774   -0.000005311
      6        6          -0.016725453   -0.000723246    0.000000526
      7        6          -0.002341866   -0.018469153    0.000010330
      8        6          -0.011370538    0.005559025   -0.000003464
      9        6           0.011744892   -0.007072739   -0.000004367
     10        6          -0.002287610   -0.008970629   -0.000010050
     11        6          -0.019825106   -0.003770115    0.000023144
     12        6           0.025896589    0.032072516   -0.000024990
     13        7           0.013185981    0.000782557   -0.000008175
     14        6          -0.003859155   -0.003318354    0.000004272
     15        1           0.000007738   -0.001207019    0.000004437
     16        1          -0.002324818   -0.000268233    0.000003518
     17        1           0.002653833    0.000862832    0.000006754
     18        1          -0.002340973   -0.000244518    0.000005900
     19        1           0.001358776   -0.000227711   -0.000002333
 -------------------------------------------------------------------
 Cartesian Forces:  Max     0.032072516 RMS     0.008328950

 GradGradGradGradGradGradGradGradGradGradGradGradGradGradGradGradGradGrad
 Berny optimization.
 Using GEDIIS/GDIIS optimizer.
 FormGI is forming the generalized inverse of G from B-inverse, IUseBI=4.
 Internal  Forces:  Max     0.021660132 RMS     0.005067004
 Search for a local minimum.
 Step number   2 out of a maximum of  102
 All quantities printed in internal units (Hartrees-Bohrs-Radians)
 Mixed Optimization -- RFO/linear search
 Update second derivatives using D2CorX and points    1    2
 DE= -3.32D-02 DEPred=-3.48D-02 R= 9.55D-01
 TightC=F SS=  1.41D+00  RLast= 3.00D-01 DXNew= 5.0454D-01 8.9988D-01
 Trust test= 9.55D-01 RLast= 3.00D-01 DXMaxT set to 5.05D-01
 ITU=  1  0
 Use linear search instead of GDIIS.
     Eigenvalues ---    0.01642   0.01642   0.01985   0.01991   0.02028
     Eigenvalues ---    0.02039   0.02051   0.02073   0.02088   0.02095
     Eigenvalues ---    0.02115   0.02122   0.02124   0.02132   0.02148
     Eigenvalues ---    0.02157   0.04860   0.04874   0.15924   0.16000
     Eigenvalues ---    0.16000   0.16000   0.16070   0.22089   0.22543
     Eigenvalues ---    0.23225   0.23539   0.24467   0.24809   0.25000
     Eigenvalues ---    0.25035   0.34863   0.34922   0.34933   0.34945
     Eigenvalues ---    0.35049   0.38978   0.40524   0.40810   0.41398
     Eigenvalues ---    0.42180   0.43416   0.44140   0.45074   0.45577
     Eigenvalues ---    0.45751   0.46069   0.46535   0.50524   1.27235
     Eigenvalues ---    1.33280
 RFO step:  Lambda=-3.71041750D-03 EMin= 1.64155401D-02
 Quartic linear search produced a step of  0.36971.
 Iteration  1 RMS(Cart)=  0.03003173 RMS(Int)=  0.00074061
 Iteration  2 RMS(Cart)=  0.00159180 RMS(Int)=  0.00029609
 Iteration  3 RMS(Cart)=  0.00000045 RMS(Int)=  0.00029609
 Variable       Old X    -DE/DX   Delta X   Delta X   Delta X     New X
                                 (Linear)    (Quad)   (Total)
    R1        2.25650   0.01308   0.02302  -0.01093   0.01209   2.26859
    R2        2.75301   0.00474   0.01608  -0.00206   0.01403   2.76704
    R3        2.65944  -0.00153   0.00409  -0.00940  -0.00546   2.65398
    R4        2.70522   0.00193   0.01763  -0.01349   0.00407   2.70929
    R5        2.07568   0.00106   0.00611  -0.00274   0.00337   2.07906
    R6        2.70135   0.00723   0.02235  -0.00404   0.01823   2.71958
    R7        2.64215  -0.00604   0.00149  -0.01960  -0.01804   2.62411
    R8        2.07122   0.00105   0.00501  -0.00157   0.00344   2.07466
    R9        2.70916   0.00812   0.02455  -0.00296   0.02173   2.73089
   R10        2.07304   0.00194   0.00558   0.00124   0.00682   2.07986
   R11        2.76637   0.00506   0.03495  -0.02171   0.01317   2.77954
   R12        2.73294   0.02091   0.03476   0.02452   0.05966   2.79260
   R13        2.69815   0.00769   0.01498   0.00572   0.02010   2.71825
   R14        2.62880  -0.00483  -0.00582  -0.00963  -0.01585   2.61295
   R15        2.06999   0.00123   0.00449  -0.00027   0.00422   2.07420
   R16        2.71887   0.00747   0.02950  -0.01156   0.01813   2.73700
   R17        2.08112   0.00093   0.00873  -0.00621   0.00252   2.08364
   R18        2.67922   0.01115   0.01790   0.01334   0.03180   2.71102
   R19        2.76159   0.00921   0.02232   0.00552   0.02784   2.78943
   R20        2.25719   0.01321   0.02371  -0.01159   0.01212   2.26931
    A1        2.10557   0.00089   0.00009   0.00525   0.00506   2.11063
    A2        2.07914   0.00014  -0.00204   0.00465   0.00275   2.08189
    A3        2.09848  -0.00103   0.00194  -0.00990  -0.00782   2.09067
    A4        2.09468   0.00046  -0.00168   0.00514   0.00361   2.09829
    A5        2.09488  -0.00001   0.00105  -0.00051   0.00068   2.09556
    A6        2.09363  -0.00045   0.00063  -0.00463  -0.00430   2.08934
    A7        2.09582  -0.00127  -0.00032  -0.00912  -0.00952   2.08630
    A8        2.09166  -0.00153  -0.00475  -0.00770  -0.01241   2.07925
    A9        2.09571   0.00280   0.00507   0.01681   0.02192   2.11763
   A10        2.13316   0.00510   0.01220   0.01694   0.02928   2.16244
   A11        2.07825  -0.00046  -0.00118   0.00313   0.00188   2.08012
   A12        2.07178  -0.00463  -0.01102  -0.02006  -0.03116   2.04062
   A13        2.04549  -0.00632  -0.01905  -0.01341  -0.03236   2.01312
   A14        2.08298  -0.00429  -0.00490  -0.02044  -0.02553   2.05746
   A15        2.15471   0.01060   0.02395   0.03384   0.05789   2.21260
   A16        2.09271   0.00205   0.00646   0.00497   0.01184   2.10454
   A17        2.12391  -0.00081  -0.00314  -0.00136  -0.00403   2.11988
   A18        2.06657  -0.00124  -0.00332  -0.00361  -0.00780   2.05876
   A19        2.08819  -0.00134  -0.00671  -0.00562  -0.01348   2.07471
   A20        2.09984  -0.00141  -0.00085  -0.00959  -0.00986   2.08998
   A21        2.09515   0.00275   0.00756   0.01521   0.02335   2.11850
   A22        2.10297   0.00051   0.00381  -0.00635  -0.00290   2.10007
   A23        2.06562   0.00080  -0.00785   0.01904   0.01137   2.07699
   A24        2.11459  -0.00131   0.00404  -0.01269  -0.00847   2.10612
   A25        2.16700   0.01313   0.02789   0.03911   0.06769   2.23470
   A26        2.06556  -0.01069  -0.01905  -0.03600  -0.05539   2.01017
   A27        2.05063  -0.00243  -0.00884  -0.00312  -0.01230   2.03832
   A28        1.98692  -0.02166  -0.04562  -0.05738  -0.10140   1.88553
   A29        3.13744   0.00023   0.00021   0.01538   0.01560   3.15303
   A30        3.16538  -0.00018   0.00991  -0.01884  -0.00892   3.15645
   A31        3.14151   0.00000   0.00003   0.00012   0.00015   3.14167
   A32        3.14163   0.00000  -0.00001  -0.00006  -0.00007   3.14156
    D1       -3.14138   0.00000  -0.00002  -0.00020  -0.00021  -3.14159
    D2        0.00023  -0.00001  -0.00002  -0.00025  -0.00028  -0.00005
    D3        0.00014   0.00000  -0.00001  -0.00011  -0.00012   0.00002
    D4       -3.14144   0.00000  -0.00001  -0.00017  -0.00018   3.14156
    D5       -0.00019   0.00000   0.00002   0.00019   0.00020   0.00001
    D6        3.14139   0.00000   0.00001   0.00014   0.00015   3.14153
    D7        3.14148   0.00000   0.00000   0.00010   0.00011   3.14159
    D8       -0.00013   0.00000   0.00000   0.00005   0.00005  -0.00008
    D9        3.14149   0.00000   0.00001   0.00009   0.00010   3.14159
   D10       -0.00016   0.00000   0.00001   0.00012   0.00013  -0.00002
   D11       -0.00012   0.00000   0.00001   0.00015   0.00016   0.00005
   D12        3.14143   0.00000   0.00002   0.00018   0.00020  -3.14156
   D13       -0.00004   0.00000   0.00000   0.00002   0.00003  -0.00001
   D14        3.14142   0.00000   0.00001   0.00015   0.00016   3.14158
   D15       -3.14158   0.00000   0.00000  -0.00001  -0.00001  -3.14158
   D16       -0.00012   0.00000   0.00001   0.00012   0.00013   0.00001
   D17        0.00007   0.00000  -0.00001  -0.00008  -0.00010  -0.00002
   D18       -3.14149   0.00000  -0.00002  -0.00013  -0.00015   3.14155
   D19       -3.14138   0.00000  -0.00002  -0.00021  -0.00023   3.14157
   D20        0.00024  -0.00001  -0.00003  -0.00026  -0.00029  -0.00004
   D21        0.00004   0.00000   0.00000  -0.00002  -0.00001   0.00002
   D22       -3.14154   0.00000   0.00001   0.00003   0.00004  -3.14150
   D23       -3.14159   0.00000   0.00001   0.00003   0.00004  -3.14155
   D24        0.00002   0.00000   0.00001   0.00008   0.00010   0.00012
   D25       -3.14158   0.00000  -0.00001  -0.00008  -0.00008   3.14152
   D26        0.00004   0.00000  -0.00001  -0.00013  -0.00014  -0.00010
   D27       -3.14154   0.00000  -0.00001  -0.00004  -0.00005  -3.14159
   D28        0.00005   0.00000  -0.00001  -0.00005  -0.00007  -0.00002
   D29        0.00004   0.00000  -0.00002  -0.00009  -0.00010  -0.00007
   D30       -3.14156   0.00000  -0.00001  -0.00010  -0.00012   3.14150
   D31       -0.00016   0.00000   0.00002   0.00016   0.00017   0.00002
   D32        3.14149   0.00000   0.00000   0.00006   0.00006   3.14155
   D33        3.14144   0.00000   0.00002   0.00017   0.00019  -3.14155
   D34       -0.00009   0.00000   0.00000   0.00008   0.00008  -0.00002
   D35        0.00023   0.00000  -0.00001  -0.00022  -0.00024  -0.00001
   D36       -3.14148   0.00000   0.00000  -0.00003  -0.00004  -3.14152
   D37       -3.14142   0.00000   0.00000  -0.00012  -0.00013  -3.14154
   D38        0.00006   0.00000   0.00002   0.00007   0.00008   0.00014
   D39       -0.00017   0.00000   0.00001   0.00020   0.00021   0.00004
   D40        3.14154   0.00000   0.00000   0.00002   0.00001   3.14155
         Item               Value     Threshold  Converged?
 Maximum Force            0.021660     0.000450     NO 
 RMS     Force            0.005067     0.000300     NO 
 Maximum Displacement     0.171104     0.001800     NO 
 RMS     Displacement     0.029586     0.001200     NO 
 Predicted change in Energy=-3.713343D-03
 GradGradGradGradGradGradGradGradGradGradGradGradGradGradGradGradGradGrad

                          Input orientation:                          
 ---------------------------------------------------------------------
 Center     Atomic      Atomic             Coordinates (Angstroms)
 Number     Number       Type             X           Y           Z
 ---------------------------------------------------------------------
      1          7           0        1.000337   -0.280064   -0.071519
      2          6           0        2.198024   -0.198126   -0.072098
      3          6           0        4.434683   -1.286289   -0.073366
      4          6           0        3.659910   -0.114905   -0.072894
      5          6           0        4.308973    1.169554   -0.073134
      6          6           0        5.696019    1.235640   -0.073886
      7          6           0        6.558171    0.075865   -0.074450
      8          6           0        5.866958   -1.222470   -0.074144
      9          6           0        6.671558   -2.414829   -0.074561
     10          6           0        8.048714   -2.290967   -0.075304
     11          6           0        8.665069   -0.980301   -0.075634
     12          6           0        8.018782    0.300486   -0.075289
     13          7           0       11.341909   -0.963004   -0.077298
     14          6           0       10.141172   -0.980603   -0.076534
     15          1           0        3.931188   -2.264505   -0.073152
     16          1           0        3.694113    2.079089   -0.072734
     17          1           0        6.186330    2.221008   -0.074076
     18          1           0        6.186238   -3.399327   -0.074262
     19          1           0        8.667555   -3.203543   -0.075586
 ---------------------------------------------------------------------
                    Distance matrix (angstroms):
                    1          2          3          4          5
     1  N    0.000000
     2  C    1.200486   0.000000
     3  C    3.578718   2.487317   0.000000
     4  C    2.664696   1.464253   1.404426   0.000000
     5  C    3.612265   2.515284   2.459058   1.439138   0.000000
     6  C    4.934247   3.780431   2.819768   2.443300   1.388620
     7  C    5.569220   4.368748   2.522829   2.904533   2.501010
     8  C    4.957029   3.809247   1.433696   2.469365   2.854663
     9  C    6.059701   4.992623   2.505437   3.789416   4.292972
    10  C    7.329622   6.213741   3.751080   4.898659   5.095182
    11  C    7.696653   6.514176   4.241438   5.079423   4.857721
    12  C    7.042415   5.842076   3.919646   4.378621   3.810245
    13  N   10.364099   9.175822   6.914788   7.728674   7.349150
    14  C    9.167641   7.981597   5.714671   6.538823   6.215926
    15  H    3.539477   2.696995   1.100189   2.166650   3.454777
    16  H    3.580786   2.724700   3.445898   2.194261   1.097865
    17  H    5.757594   4.664633   3.920382   3.440827   2.151750
    18  H    6.051725   5.114054   2.744609   4.143642   4.939514
    19  H    8.205667   7.133539   4.646835   5.883554   6.174239
                    6          7          8          9         10
     6  C    0.000000
     7  C    1.445124   0.000000
     8  C    2.464047   1.470867   0.000000
     9  C    3.778570   2.493273   1.438436   0.000000
    10  C    4.239355   2.797073   2.429351   1.382715   0.000000
    11  C    3.704815   2.356800   2.808571   2.456004   1.448357
    12  C    2.503945   1.477782   2.636236   3.031163   2.591626
    13  N    6.058887   4.895243   5.481097   4.890806   3.550862
    14  C    4.967003   3.735509   4.281052   3.754361   2.468894
    15  H    3.919904   3.518292   2.198419   2.744490   4.117612
    16  H    2.172335   3.495102   3.952411   5.390777   6.169275
    17  H    1.100616   2.177132   3.458257   4.661161   4.881229
    18  H    4.660819   3.495039   2.200147   1.097621   2.167321
    19  H    5.341945   3.899233   3.430451   2.146177   1.102615
                   11         12         13         14         15
    11  C    0.000000
    12  C    1.434609   0.000000
    13  N    2.676896   3.555219   0.000000
    14  C    1.476103   2.479058   1.200866   0.000000
    15  H    4.904979   4.825724   7.524142   6.341318   0.000000
    16  H    5.836976   4.676131   8.230622   7.136267   4.350059
    17  H    4.048769   2.654484   6.059532   5.088329   5.020507
    18  H    3.463566   4.128781   5.702335   4.635918   2.524495
    19  H    2.223243   3.563583   3.488866   2.667022   4.828558
                   16         17         18         19
    16  H    0.000000
    17  H    2.496255   0.000000
    18  H    6.018616   5.620335   0.000000
    19  H    7.255435   5.965084   2.489030   0.000000
 Stoichiometry    C12H5N2(1-)
 Framework group  C1[X(C12H5N2)]
 Deg. of freedom    51
 Full point group                 C1      NOp   1
 Largest Abelian subgroup         C1      NOp   1
 Largest concise Abelian subgroup C1      NOp   1
                         Standard orientation:                         
 ---------------------------------------------------------------------
 Center     Atomic      Atomic             Coordinates (Angstroms)
 Number     Number       Type             X           Y           Z
 ---------------------------------------------------------------------
      1          7           0       -5.148619    0.470202    0.000107
      2          6           0       -3.976802    0.209413    0.000026
      3          6           0       -1.602144    0.949511    0.000019
      4          6           0       -2.543971   -0.092303    0.000017
      5          6           0       -2.095066   -1.459636   -0.000059
      6          6           0       -0.733655   -1.733177   -0.000072
      7          6           0        0.292818   -0.715957   -0.000025
      8          6           0       -0.195676    0.671423    0.000008
      9          6           0        0.778788    1.729497   -0.000061
     10          6           0        2.121749    1.400320   -0.000076
     11          6           0        2.534382    0.011985   -0.000043
     12          6           0        1.703163   -1.157279    0.000013
     13          7           0        5.178297   -0.406926    0.000140
     14          6           0        3.993806   -0.209288    0.000040
     15          1           0       -1.953099    1.992222    0.000051
     16          1           0       -2.839487   -2.266573   -0.000088
     17          1           0       -0.396809   -2.780980   -0.000120
     18          1           0        0.446746    2.775690   -0.000125
     19          1           0        2.870561    2.209664   -0.000168
 ---------------------------------------------------------------------
 Rotational constants (GHZ):      2.5837276      0.3389868      0.2996699
 Standard basis: STO-3G (5D, 7F)
 There are    75 symmetry adapted cartesian basis functions of A   symmetry.
 There are    75 symmetry adapted basis functions of A   symmetry.
    75 basis functions,   225 primitive gaussians,    75 cartesian basis functions
    46 alpha electrons       46 beta electrons
       nuclear repulsion energy       680.8490107943 Hartrees.
 NAtoms=   19 NActive=   19 NUniq=   19 SFac= 1.00D+00 NAtFMM=   60 NAOKFM=F Big=F
 Integral buffers will be    131072 words long.
 Raffenetti 2 integral format.
 Two-electron integral symmetry is turned on.
 One-electron integrals computed using PRISM.
 NBasis=    75 RedAO= T EigKep=  1.76D-01  NBF=    75
 NBsUse=    75 1.00D-06 EigRej= -1.00D+00 NBFU=    75
 Initial guess from the checkpoint file:  "/tmp/bnp.472646.sequoia/Gau-23638.chk"
 B after Tr=     0.000000    0.000000    0.000000
         Rot=    1.000000    0.000000    0.000000    0.000090 Ang=  -0.01 deg.
 ExpMin= 1.69D-01 ExpMax= 9.91D+01 ExpMxC= 9.91D+01 IAcc=1 IRadAn=         1 AccDes= 0.00D+00
 Harris functional with IExCor=  402 and IRadAn=       1 diagonalized for initial guess.
 HarFok:  IExCor=  402 AccDes= 0.00D+00 IRadAn=         1 IDoV= 1 UseB2=F ITyADJ=14
 ICtDFT=  3500011 ScaDFX=  1.000000  1.000000  1.000000  1.000000
 FoFCou: FMM=F IPFlag=           0 FMFlag=      100000 FMFlg1=           0
         NFxFlg=           0 DoJE=T BraDBF=F KetDBF=T FulRan=T
         wScrn=  0.000000 ICntrl=     500 IOpCl=  0 I1Cent=   200000004 NGrid=           0
         NMat0=    1 NMatS0=      1 NMatT0=    0 NMatD0=    1 NMtDS0=    0 NMtDT0=    0
 Petite list used in FoFCou.
 Keep R1 ints in memory in canonical form, NReq=4993994.
 Requested convergence on RMS density matrix=1.00D-08 within 128 cycles.
 Requested convergence on MAX density matrix=1.00D-06.
 Requested convergence on             energy=1.00D-06.
 No special actions if energy rises.
 Integral accuracy reduced to 1.0D-05 until final iterations.
 Initial convergence to 1.0D-05 achieved.  Increase integral accuracy.
 SCF Done:  E(RB3LYP) =  -562.522024358     A.U. after   13 cycles
            NFock= 13  Conv=0.82D-08     -V/T= 2.0140
 Calling FoFJK, ICntrl=      2127 FMM=F ISym2X=0 I1Cent= 0 IOpClX= 0 NMat=1 NMatS=1 NMatT=0.
 ***** Axes restored to original set *****
 -------------------------------------------------------------------
 Center     Atomic                   Forces (Hartrees/Bohr)
 Number     Number              X              Y              Z
 -------------------------------------------------------------------
      1        7           0.001785896    0.000680318    0.000001710
      2        6          -0.000541860   -0.001091101   -0.000005478
      3        6           0.000094271    0.000862262   -0.000003770
      4        6          -0.001753010   -0.000782848    0.000006999
      5        6           0.000183498    0.001006005   -0.000001647
      6        6           0.000459844    0.002248620   -0.000000736
      7        6          -0.010349584   -0.004787651    0.000002832
      8        6           0.001623454    0.004002059    0.000004698
      9        6          -0.000899792   -0.001940022   -0.000001624
     10        6           0.000756751   -0.000701038    0.000007432
     11        6           0.001761799   -0.001791503   -0.000008162
     12        6           0.003671518    0.001681114    0.000002105
     13        7          -0.002264298   -0.000157347    0.000002690
     14        6           0.003807409   -0.000648942   -0.000003321
     15        1           0.000733859    0.000158255    0.000000638
     16        1           0.000247758   -0.000496437    0.000000073
     17        1           0.000094898   -0.000416287   -0.000000379
     18        1          -0.000110075    0.000488940   -0.000002063
     19        1           0.000697662    0.001685603   -0.000001996
 -------------------------------------------------------------------
 Cartesian Forces:  Max     0.010349584 RMS     0.001953563

 GradGradGradGradGradGradGradGradGradGradGradGradGradGradGradGradGradGrad
 Berny optimization.
 Using GEDIIS/GDIIS optimizer.
 FormGI is forming the generalized inverse of G from B-inverse, IUseBI=4.
 Internal  Forces:  Max     0.006252256 RMS     0.001113799
 Search for a local minimum.
 Step number   3 out of a maximum of  102
 All quantities printed in internal units (Hartrees-Bohrs-Radians)
 Mixed Optimization -- RFO/linear search
 Update second derivatives using D2CorX and points    1    2    3
 DE= -4.19D-03 DEPred=-3.71D-03 R= 1.13D+00
 TightC=F SS=  1.41D+00  RLast= 1.89D-01 DXNew= 8.4853D-01 5.6647D-01
 Trust test= 1.13D+00 RLast= 1.89D-01 DXMaxT set to 5.66D-01
 ITU=  1  1  0
 Use linear search instead of GDIIS.
     Eigenvalues ---    0.01642   0.01647   0.01985   0.01991   0.02026
     Eigenvalues ---    0.02039   0.02052   0.02074   0.02087   0.02095
     Eigenvalues ---    0.02115   0.02123   0.02124   0.02133   0.02148
     Eigenvalues ---    0.02157   0.04860   0.04876   0.15449   0.16000
     Eigenvalues ---    0.16000   0.16001   0.16082   0.21589   0.22629
     Eigenvalues ---    0.22763   0.23552   0.24499   0.24831   0.25006
     Eigenvalues ---    0.25437   0.34863   0.34907   0.34933   0.34945
     Eigenvalues ---    0.35087   0.38174   0.39250   0.40685   0.41381
     Eigenvalues ---    0.41854   0.43185   0.43765   0.44986   0.45562
     Eigenvalues ---    0.45787   0.46308   0.46515   0.50739   1.27231
     Eigenvalues ---    1.35695
 RFO step:  Lambda=-3.84104836D-04 EMin= 1.64156562D-02
 Quartic linear search produced a step of  0.00559.
 Iteration  1 RMS(Cart)=  0.01617496 RMS(Int)=  0.00058195
 Iteration  2 RMS(Cart)=  0.00057425 RMS(Int)=  0.00000113
 Iteration  3 RMS(Cart)=  0.00000017 RMS(Int)=  0.00000113
 Variable       Old X    -DE/DX   Delta X   Delta X   Delta X     New X
                                 (Linear)    (Quad)   (Total)
    R1        2.26859  -0.00183   0.00007  -0.00036  -0.00029   2.26830
    R2        2.76704  -0.00122   0.00008  -0.00208  -0.00200   2.76504
    R3        2.65398  -0.00015  -0.00003  -0.00028  -0.00031   2.65367
    R4        2.70929  -0.00069   0.00002  -0.00111  -0.00109   2.70820
    R5        2.07906  -0.00048   0.00002  -0.00105  -0.00103   2.07803
    R6        2.71958   0.00095   0.00010   0.00366   0.00376   2.72334
    R7        2.62411  -0.00007  -0.00010  -0.00016  -0.00026   2.62385
    R8        2.07466  -0.00055   0.00002  -0.00129  -0.00127   2.07339
    R9        2.73089   0.00077   0.00012   0.00311   0.00323   2.73412
   R10        2.07986  -0.00033   0.00004  -0.00057  -0.00053   2.07933
   R11        2.77954  -0.00426   0.00007  -0.00864  -0.00857   2.77097
   R12        2.79260   0.00625   0.00033   0.01622   0.01655   2.80916
   R13        2.71825   0.00207   0.00011   0.00538   0.00549   2.72374
   R14        2.61295   0.00212  -0.00009   0.00394   0.00385   2.61680
   R15        2.07420  -0.00039   0.00002  -0.00084  -0.00082   2.07339
   R16        2.73700  -0.00084   0.00010  -0.00016  -0.00006   2.73694
   R17        2.08364  -0.00100   0.00001  -0.00246  -0.00244   2.08120
   R18        2.71102   0.00238   0.00018   0.00666   0.00684   2.71786
   R19        2.78943   0.00154   0.00016   0.00522   0.00537   2.79480
   R20        2.26931  -0.00227   0.00007  -0.00067  -0.00060   2.26870
    A1        2.11063   0.00064   0.00003   0.00228   0.00230   2.11293
    A2        2.08189   0.00028   0.00002   0.00262   0.00264   2.08453
    A3        2.09067  -0.00092  -0.00004  -0.00489  -0.00494   2.08573
    A4        2.09829   0.00013   0.00002   0.00023   0.00025   2.09854
    A5        2.09556   0.00017   0.00000   0.00042   0.00043   2.09599
    A6        2.08934  -0.00030  -0.00002  -0.00065  -0.00068   2.08866
    A7        2.08630  -0.00054  -0.00005  -0.00127  -0.00132   2.08498
    A8        2.07925   0.00020  -0.00007  -0.00041  -0.00048   2.07877
    A9        2.11763   0.00034   0.00012   0.00168   0.00181   2.11944
   A10        2.16244  -0.00108   0.00016  -0.00307  -0.00290   2.15953
   A11        2.08012   0.00082   0.00001   0.00389   0.00389   2.08402
   A12        2.04062   0.00025  -0.00017  -0.00081  -0.00099   2.03963
   A13        2.01312   0.00185  -0.00018   0.00530   0.00512   2.01824
   A14        2.05746  -0.00061  -0.00014  -0.00270  -0.00284   2.05462
   A15        2.21260  -0.00125   0.00032  -0.00260  -0.00228   2.21033
   A16        2.10454  -0.00057   0.00007  -0.00258  -0.00251   2.10203
   A17        2.11988  -0.00022  -0.00002   0.00007   0.00005   2.11993
   A18        2.05876   0.00079  -0.00004   0.00251   0.00246   2.06123
   A19        2.07471   0.00041  -0.00008   0.00014   0.00006   2.07477
   A20        2.08998  -0.00053  -0.00006  -0.00267  -0.00272   2.08726
   A21        2.11850   0.00012   0.00013   0.00253   0.00266   2.12116
   A22        2.10007   0.00043  -0.00002   0.00171   0.00170   2.10177
   A23        2.07699   0.00137   0.00006   0.00893   0.00899   2.08599
   A24        2.10612  -0.00180  -0.00005  -0.01064  -0.01069   2.09543
   A25        2.23470  -0.00150   0.00038  -0.00293  -0.00255   2.23214
   A26        2.01017  -0.00053  -0.00031  -0.00432  -0.00463   2.00554
   A27        2.03832   0.00203  -0.00007   0.00725   0.00718   2.04550
   A28        1.88553   0.00111  -0.00057   0.00117   0.00061   1.88614
   A29        3.15303  -0.00127   0.00009  -0.07533  -0.07524   3.07780
   A30        3.15645  -0.00029  -0.00005  -0.00535  -0.00540   3.15105
   A31        3.14167   0.00000   0.00000  -0.00027  -0.00026   3.14140
   A32        3.14156   0.00000   0.00000   0.00005   0.00005   3.14161
    D1       -3.14159   0.00000   0.00000  -0.00001  -0.00002   3.14158
    D2       -0.00005   0.00000   0.00000   0.00004   0.00004  -0.00001
    D3        0.00002   0.00000   0.00000  -0.00005  -0.00005  -0.00003
    D4        3.14156   0.00000   0.00000   0.00001   0.00001   3.14157
    D5        0.00001   0.00000   0.00000  -0.00003  -0.00003  -0.00001
    D6        3.14153   0.00000   0.00000   0.00002   0.00002   3.14156
    D7        3.14159   0.00000   0.00000   0.00001   0.00001   3.14159
    D8       -0.00008   0.00000   0.00000   0.00006   0.00006  -0.00002
    D9        3.14159   0.00000   0.00000   0.00003   0.00003  -3.14157
   D10       -0.00002   0.00000   0.00000   0.00004   0.00004   0.00002
   D11        0.00005   0.00000   0.00000  -0.00003  -0.00003   0.00001
   D12       -3.14156   0.00000   0.00000  -0.00002  -0.00002  -3.14158
   D13       -0.00001   0.00000   0.00000   0.00001   0.00001   0.00000
   D14        3.14158   0.00000   0.00000   0.00001   0.00001  -3.14159
   D15       -3.14158   0.00000   0.00000  -0.00001  -0.00001  -3.14159
   D16        0.00001   0.00000   0.00000   0.00000   0.00000   0.00001
   D17       -0.00002   0.00000   0.00000   0.00001   0.00001  -0.00002
   D18        3.14155   0.00000   0.00000   0.00001   0.00001   3.14155
   D19        3.14157   0.00000   0.00000   0.00000   0.00000   3.14157
   D20       -0.00004   0.00000   0.00000   0.00000   0.00000  -0.00004
[...]
 ! D27   D(3,8,9,10)           180.0005         -DE/DX =    0.0                 !
 ! D28   D(3,8,9,18)             0.0002         -DE/DX =    0.0                 !
 ! D29   D(7,8,9,10)            -0.0001         -DE/DX =    0.0                 !
 ! D30   D(7,8,9,18)           179.9997         -DE/DX =    0.0                 !
 ! D31   D(8,9,10,11)           -0.0003         -DE/DX =    0.0                 !
 ! D32   D(8,9,10,19)          179.9997         -DE/DX =    0.0                 !
 ! D33   D(18,9,10,11)         180.0            -DE/DX =    0.0                 !
 ! D34   D(18,9,10,19)           0.0            -DE/DX =    0.0                 !
 ! D35   D(9,10,11,12)           0.0004         -DE/DX =    0.0                 !
 ! D36   D(9,10,11,14)        -179.9995         -DE/DX =    0.0                 !
 ! D37   D(19,10,11,12)       -179.9996         -DE/DX =    0.0                 !
 ! D38   D(19,10,11,14)          0.0005         -DE/DX =    0.0                 !
 ! D39   D(10,11,12,7)          -0.0001         -DE/DX =    0.0                 !
 ! D40   D(14,11,12,7)         179.9998         -DE/DX =    0.0                 !
 --------------------------------------------------------------------------------
 GradGradGradGradGradGradGradGradGradGradGradGradGradGradGradGradGradGrad

                          Input orientation:                          
 ---------------------------------------------------------------------
 Center     Atomic      Atomic             Coordinates (Angstroms)
 Number     Number       Type             X           Y           Z
 ---------------------------------------------------------------------
      1          7           0        0.998645   -0.268551   -0.070727
      2          6           0        2.196552   -0.202942   -0.072305
      3          6           0        4.435232   -1.285831   -0.073434
      4          6           0        3.656457   -0.117843   -0.072995
      5          6           0        4.302612    1.170118   -0.073252
      6          6           0        5.689532    1.238381   -0.073966
      7          6           0        6.546806    0.074583   -0.074465
      8          6           0        5.867335   -1.219719   -0.074175
      9          6           0        6.674155   -2.414105   -0.074641
     10          6           0        8.051649   -2.286912   -0.075341
     11          6           0        8.669243   -0.976571   -0.075607
     12          6           0        8.019248    0.305456   -0.075216
     13          7           0       11.346667   -0.988608   -0.076997
     14          6           0       10.146773   -0.987607   -0.076374
     15          1           0        3.938496   -2.266862   -0.073220
     16          1           0        3.684663    2.076776   -0.072898
     17          1           0        6.184001    2.221023   -0.074179
     18          1           0        6.187068   -3.397007   -0.074430
     19          1           0        8.680566   -3.191072   -0.075698
 ---------------------------------------------------------------------
                    Distance matrix (angstroms):
                    1          2          3          4          5
     1  N    0.000000
     2  C    1.199704   0.000000
     3  C    3.583992   2.486833   0.000000
     4  C    2.662083   1.462384   1.403811   0.000000
     5  C    3.603605   2.514117   2.459527   1.440958   0.000000
     6  C    4.926994   3.778667   2.818672   2.443918   1.388599
     7  C    5.558763   4.359098   2.511866   2.896747   2.497320
     8  C    4.960733   3.809000   1.433628   2.470245   2.856515
     9  C    6.067523   4.993814   2.507146   3.792008   4.297776
    10  C    7.336121   6.214909   3.752418   4.901283   5.099642
    11  C    7.703207   6.518761   4.245292   5.085808   4.865773
    12  C    7.044031   5.844849   3.921399   4.383278   3.815891
    13  N   10.373046   9.183784   6.917824   7.739352   7.367416
    14  C    9.176346   7.988850   5.719322   6.548335   6.229768
    15  H    3.554712   2.700765   1.099622   2.167448   3.456213
    16  H    3.565846   2.722424   3.445356   2.194800   1.097219
    17  H    5.752035   4.666407   3.918701   3.443656   2.155000
    18  H    6.058629   5.111387   2.743355   4.142090   4.940629
    19  H    8.219067   7.139424   4.653258   5.889517   6.179520
                    6          7          8          9         10
     6  C    0.000000
     7  C    1.445456   0.000000
     8  C    2.464522   1.461814   0.000000
     9  C    3.782874   2.491944   1.441360   0.000000
    10  C    4.243500   2.800217   2.431076   1.383353   0.000000
    11  C    3.712775   2.368474   2.812439   2.459041   1.448592
    12  C    2.509567   1.490432   2.637592   3.034022   2.592571
    13  N    6.079693   4.916203   5.484205   4.885121   3.541574
    14  C    4.982171   3.753401   4.285729   3.754194   2.465307
    15  H    3.918272   3.505088   2.194750   2.739619   4.113202
    16  H    2.173110   3.492941   3.953598   5.394912   6.173520
    17  H    1.100039   2.176886   3.455283   4.660972   4.879508
    18  H    4.662013   3.490179   2.200639   1.096974   2.170017
    19  H    5.344749   3.900953   3.435186   2.151595   1.101382
                   11         12         13         14         15
    11  C    0.000000
    12  C    1.437389   0.000000
    13  N    2.677451   3.570199   0.000000
    14  C    1.477571   2.489654   1.199895   0.000000
    15  H    4.903552   4.823832   7.517642   6.338707   0.000000
    16  H    5.845424   4.682543   8.252448   7.151875   4.351048
    17  H    4.049820   2.652834   6.079051   5.098910   5.018306
    18  H    3.466945   4.130995   5.694019   4.635135   2.516606
    19  H    2.214530   3.558518   3.458171   2.646700   4.831294
                   16         17         18         19
    16  H    0.000000
    17  H    2.503497   0.000000
    18  H    6.018666   5.618031   0.000000
    19  H    7.260116   5.960169   2.501988   0.000000
 Stoichiometry    C12H5N2(1-)
 Framework group  C1[X(C12H5N2)]
 Deg. of freedom    51
 Full point group                 C1      NOp   1
 Largest Abelian subgroup         C1      NOp   1
 Largest concise Abelian subgroup C1      NOp   1
                         Standard orientation:                         
 ---------------------------------------------------------------------
 Center     Atomic      Atomic             Coordinates (Angstroms)
 Number     Number       Type             X           Y           Z
 ---------------------------------------------------------------------
      1          7           0       -5.150718    0.468677   -0.000607
      2          6           0       -3.976726    0.221633    0.000302
      3          6           0       -1.599387    0.951425    0.000150
      4          6           0       -2.546749   -0.084525    0.000177
      5          6           0       -2.104008   -1.455779    0.000105
      6          6           0       -0.743607   -1.734195    0.000044
      7          6           0        0.280704   -0.714327    0.000033
      8          6           0       -0.194002    0.668263    0.000091
      9          6           0        0.785096    1.726037    0.000075
     10          6           0        2.127217    1.390811    0.000007
     11          6           0        2.538326    0.001780   -0.000040
     12          6           0        1.700900   -1.166469   -0.000034
     13          7           0        5.186431   -0.393553   -0.000148
     14          6           0        4.000344   -0.212041   -0.000099
     15          1           0       -1.941131    1.996594    0.000189
     16          1           0       -2.852668   -2.257900    0.000120
     17          1           0       -0.404349   -2.780612    0.000005
     18          1           0        0.453172    2.771588    0.000111
     19          1           0        2.886338    2.188794   -0.000011
 ---------------------------------------------------------------------
 Rotational constants (GHZ):      2.5914639      0.3382199      0.2991738

 **********************************************************************

            Population analysis using the SCF density.

 **********************************************************************

 Orbital symmetries:
       Occupied  (A) (A) (A) (A) (A) (A) (A) (A) (A) (A) (A) (A)
                 (A) (A) (A) (A) (A) (A) (A) (A) (A) (A) (A) (A)
                 (A) (A) (A) (A) (A) (A) (A) (A) (A) (A) (A) (A)
                 (A) (A) (A) (A) (A) (A) (A) (A) (A) (A)
       Virtual   (A) (A) (A) (A) (A) (A) (A) (A) (A) (A) (A) (A)
                 (A) (A) (A) (A) (A) (A) (A) (A) (A) (A) (A) (A)
                 (A) (A) (A) (A) (A)
 The electronic state is 1-A.
 Alpha  occ. eigenvalues --  -14.00222 -13.93244  -9.91320  -9.90646  -9.88370
 Alpha  occ. eigenvalues --   -9.87480  -9.86694  -9.86371  -9.85054  -9.84125
 Alpha  occ. eigenvalues --   -9.84059  -9.83586  -9.82695  -9.67962  -0.73668
 Alpha  occ. eigenvalues --   -0.67900  -0.67291  -0.62030  -0.57630  -0.55169
 Alpha  occ. eigenvalues --   -0.51207  -0.45231  -0.42625  -0.38953  -0.35544
 Alpha  occ. eigenvalues --   -0.33264  -0.30352  -0.26096  -0.25064  -0.24232
 Alpha  occ. eigenvalues --   -0.21101  -0.20950  -0.20310  -0.16733  -0.16504
 Alpha  occ. eigenvalues --   -0.16039  -0.14243  -0.13467  -0.13171  -0.10229
 Alpha  occ. eigenvalues --   -0.10202  -0.08111  -0.06875  -0.03100   0.01784
 Alpha  occ. eigenvalues --    0.10311
 Alpha virt. eigenvalues --    0.17003   0.20738   0.24804   0.26400   0.29336
 Alpha virt. eigenvalues --    0.31032   0.32848   0.38727   0.42068   0.45803
 Alpha virt. eigenvalues --    0.48212   0.50890   0.52886   0.54586   0.56353
 Alpha virt. eigenvalues --    0.57714   0.60126   0.61621   0.68491   0.69041
 Alpha virt. eigenvalues --    0.69929   0.75221   0.77371   0.81999   0.84639
 Alpha virt. eigenvalues --    0.91684   0.92785   1.05652   1.10532
          Condensed to atoms (all electrons):
               1          2          3          4          5          6
     1  N    6.588060   0.661062  -0.000103  -0.010889  -0.000074  -0.000001
     2  C    0.661062   4.934979  -0.029121   0.418437  -0.028078   0.000846
     3  C   -0.000103  -0.029121   4.838888   0.507393  -0.029887  -0.009852
     4  C   -0.010889   0.418437   0.507393   4.769923   0.462444  -0.028890
     5  C   -0.000074  -0.028078  -0.029887   0.462444   4.843869   0.522984
     6  C   -0.000001   0.000846  -0.009852  -0.028890   0.522984   4.837342
     7  C    0.000000   0.000010  -0.023118  -0.008368  -0.025151   0.461378
     8  C   -0.000001   0.000850   0.472242  -0.027336  -0.008442  -0.033882
     9  C    0.000000  -0.000006  -0.029980   0.000772   0.000034   0.000874
    10  C    0.000000   0.000000   0.000818  -0.000008   0.000001   0.000012
    11  C    0.000000   0.000000   0.000055   0.000001  -0.000015   0.001359
    12  C    0.000000   0.000000   0.000578   0.000017   0.000743  -0.033986
    13  N    0.000000   0.000000   0.000000   0.000000   0.000000   0.000000
    14  C    0.000000   0.000000   0.000000   0.000000   0.000000  -0.000005
    15  H    0.000061  -0.003506   0.384324  -0.026246   0.001290   0.000014
    16  H    0.000057  -0.003004   0.001222  -0.025449   0.387617  -0.024263
    17  H    0.000000  -0.000017   0.000026   0.001415  -0.026808   0.384112
    18  H    0.000000  -0.000001  -0.003427   0.000012  -0.000001  -0.000020
    19  H    0.000000   0.000000  -0.000017   0.000000   0.000000   0.000001
               7          8          9         10         11         12
     1  N    0.000000  -0.000001   0.000000   0.000000   0.000000   0.000000
     2  C    0.000010   0.000850  -0.000006   0.000000   0.000000   0.000000
     3  C   -0.023118   0.472242  -0.029980   0.000818   0.000055   0.000578
     4  C   -0.008368  -0.027336   0.000772  -0.000008   0.000001   0.000017
     5  C   -0.025151  -0.008442   0.000034   0.000001  -0.000015   0.000743
     6  C    0.461378  -0.033882   0.000874   0.000012   0.001359  -0.033986
     7  C    4.897970   0.441763  -0.029756  -0.012687  -0.028655   0.388244
     8  C    0.441763   4.817915   0.463859  -0.028986  -0.012329  -0.017242
     9  C   -0.029756   0.463859   4.861818   0.529969  -0.030148  -0.005507
    10  C   -0.012687  -0.028986   0.529969   4.851317   0.450577  -0.017819
    11  C   -0.028655  -0.012329  -0.030148   0.450577   4.894647   0.436647
    12  C    0.388244  -0.017242  -0.005507  -0.017819   0.436647   5.479921
    13  N   -0.000002   0.000000  -0.000001  -0.000016  -0.010961  -0.000010
    14  C    0.001457   0.000006   0.000925  -0.038807   0.402763  -0.033381
    15  H    0.001118  -0.023869  -0.003469   0.000018  -0.000002  -0.000013
    16  H    0.001249   0.000016   0.000001   0.000000   0.000000  -0.000017
    17  H   -0.025441   0.001414  -0.000016   0.000000   0.000028  -0.001499
    18  H    0.001122  -0.025143   0.386887  -0.025293   0.001275  -0.000007
    19  H    0.000087   0.001467  -0.027068   0.381023  -0.022879   0.000931
              13         14         15         16         17         18
     1  N    0.000000   0.000000   0.000061   0.000057   0.000000   0.000000
     2  C    0.000000   0.000000  -0.003506  -0.003004  -0.000017  -0.000001
     3  C    0.000000   0.000000   0.384324   0.001222   0.000026  -0.003427
     4  C    0.000000   0.000000  -0.026246  -0.025449   0.001415   0.000012
     5  C    0.000000   0.000000   0.001290   0.387617  -0.026808  -0.000001
     6  C    0.000000  -0.000005   0.000014  -0.024263   0.384112  -0.000020
     7  C   -0.000002   0.001457   0.001118   0.001249  -0.025441   0.001122
     8  C    0.000000   0.000006  -0.023869   0.000016   0.001414  -0.025143
     9  C   -0.000001   0.000925  -0.003469   0.000001  -0.000016   0.386887
    10  C   -0.000016  -0.038807   0.000018   0.000000   0.000000  -0.025293
    11  C   -0.010961   0.402763  -0.000002   0.000000   0.000028   0.001275
    12  C   -0.000010  -0.033381  -0.000013  -0.000017  -0.001499  -0.000007
    13  N    6.633791   0.659591   0.000000   0.000000   0.000000   0.000000
    14  C    0.659591   4.975214   0.000000   0.000000  -0.000001  -0.000020
    15  H    0.000000   0.000000   0.606759  -0.000035   0.000002   0.001009
    16  H    0.000000   0.000000  -0.000035   0.607583  -0.003797   0.000000
    17  H    0.000000  -0.000001   0.000002  -0.003797   0.600665   0.000000
    18  H    0.000000  -0.000020   0.001009   0.000000   0.000000   0.625359
    19  H    0.000039  -0.003239  -0.000002   0.000000   0.000000  -0.003840
              19
     1  N    0.000000
     2  C    0.000000
     3  C   -0.000017
     4  C    0.000000
     5  C    0.000000
     6  C    0.000001
     7  C    0.000087
     8  C    0.001467
     9  C   -0.027068
    10  C    0.381023
    11  C   -0.022879
    12  C    0.000931
    13  N    0.000039
    14  C   -0.003239
    15  H   -0.000002
    16  H    0.000000
    17  H    0.000000
    18  H   -0.003840
    19  H    0.624695
 Mulliken charges:
               1
     1  N   -0.238172
     2  C    0.047548
     3  C   -0.080043
     4  C   -0.033229
     5  C   -0.100526
     6  C   -0.078023
     7  C   -0.041220
     8  C   -0.022302
     9  C   -0.119188
    10  C   -0.090120
    11  C   -0.082363
    12  C   -0.197601
    13  N   -0.282431
    14  C    0.035498
    15  H    0.062546
    16  H    0.058820
    17  H    0.069916
    18  H    0.042085
    19  H    0.048803
 Sum of Mulliken charges =  -1.00000
 Mulliken charges with hydrogens summed into heavy atoms:
               1
     1  N   -0.238172
     2  C    0.047548
     3  C   -0.017496
     4  C   -0.033229
     5  C   -0.041706
     6  C   -0.008108
     7  C   -0.041220
     8  C   -0.022302
     9  C   -0.077103
    10  C   -0.041317
    11  C   -0.082363
    12  C   -0.197601
    13  N   -0.282431
    14  C    0.035498
 Electronic spatial extent (au):  <R**2>=           3330.9923
 Charge=             -1.0000 electrons
 Dipole moment (field-independent basis, Debye):
    X=             -4.5602    Y=              2.2819    Z=              0.0013  Tot=              5.0993
 Quadrupole moment (field-independent basis, Debye-Ang):
   XX=           -153.4474   YY=            -77.1993   ZZ=            -74.1615
   XY=             11.3642   XZ=             -0.0046   YZ=              0.0004
 Traceless Quadrupole moment (field-independent basis, Debye-Ang):
   XX=            -51.8447   YY=             24.4035   ZZ=             27.4412
   XY=             11.3642   XZ=             -0.0046   YZ=              0.0004
 Octapole moment (field-independent basis, Debye-Ang**2):
  XXX=            -51.3162  YYY=              9.4347  ZZZ=             -0.0020  XYY=            -13.1526
  XXY=              9.6695  XXZ=              0.0391  XZZ=              0.0324  YZZ=             -0.2278
  YYZ=              0.0002  XYZ=             -0.0043
 Hexadecapole moment (field-independent basis, Debye-Ang**3):
 XXXX=          -5947.5427 YYYY=           -584.0819 ZZZZ=            -58.3704 XXXY=            246.3048
 XXXZ=             -0.1354 YYYX=             16.5228 YYYZ=             -0.0001 ZZZX=              0.0056
 ZZZY=             -0.0006 XXYY=           -708.9306 XXZZ=           -600.0481 YYZZ=           -113.5367
 XXYZ=              0.0136 YYXZ=              0.0001 ZZXY=             -4.8774
 N-N= 6.805727516970D+02 E-N=-2.683410695895D+03  KE= 5.547769584688D+02
 1\1\GINC-N049\FOpt\RB3LYP\STO-3G\C12H5N2(1-)\R2532\15-Jun-2021\0\\#N B
 3LYP/STO-3G OPT\\2Naph\\-1,1\N,0.9986449292,-0.2685506428,-0.070727166
 3\C,2.1965521029,-0.202942007,-0.072305158\C,4.4352317964,-1.285830678
 ,-0.0734335758\C,3.6564574467,-0.1178425405,-0.0729946911\C,4.30261188
 58,1.1701183349,-0.0732523595\C,5.6895318305,1.2383809532,-0.073966196
 5\C,6.5468057942,0.0745832731,-0.0744647416\C,5.867334678,-1.219718942
 9,-0.0741750395\C,6.6741554547,-2.4141046765,-0.0746408052\C,8.0516487
 773,-2.2869124969,-0.0753413663\C,8.6692433908,-0.9765708603,-0.075606
 5317\C,8.0192479368,0.3054563967,-0.0752159889\N,11.3466669339,-0.9886
 076535,-0.0769974006\C,10.1467729684,-0.9876073097,-0.076374387\H,3.93
 84961402,-2.2668615735,-0.073220297\H,3.6846632001,2.0767763728,-0.072
 897752\H,6.1840005367,2.221023023,-0.0741785495\H,6.1870680751,-3.3970
 071461,-0.0744298615\H,8.6805661222,-3.1910718258,-0.0756981357\\Versi
 on=ES64L-G09RevD.01\State=1-A\HF=-562.5222292\RMSD=3.722e-09\RMSF=2.65
 6e-05\Dipole=-1.9097907,-0.6144464,0.0005494\Quadrupole=-39.7740626,19
 .3722093,20.4018533,0.463778,0.0371126,-0.0005195\PG=C01 [X(C12H5N2)]\
 \@


 A ROPE OVER THE TOP OF A FENCE HAS THE SAME LENGTH ON EACH SIDE.
 WEIGHS 1/3 POUND PER FOOT.  ON ONE END HANGS A MONKEY HOLDING A
 BANANA, AND ON THE OTHER END A WEIGHT EQUAL TO THE WEIGHT
 OF THE MONKEY.  THE BANANA WEIGHS TWO OUNCES PER INCH.
 THE ROPE IS AS LONG AS THE AGE OF THE MONKEY, 
 AND THE WEIGHT OF THE MONKEY (IN OUNCES) IS AS MUCH
 AS THE AGE OF THE MONKEY'S MOTHER.  THE COMBINED AGES OF MONKEY
 AND MOTHER ARE THIRTY YEARS.  HALF THE WEIGHT OF THE MONKEY,
  PLUS THE WEIGHT OF THE BANANA, IS ONE FOURTH AS MUCH AS THE WEIGHT
 OF THE WEIGHT AND THE ROPE.
 THE MONKEY'S MOTHER IS HALF AS OLD AS THE MONKEY WILL BE
 WHEN IT IS 3 TIMES AS OLD AS ITS MOTHER WAS WHEN
 SHE WAS HALF AS OLD AS THE MONKEY WILL BE WHEN IT IS
 AS OLD AS ITS MOTHER WILL BE WHEN SHE IS 4 TIMES AS
 OLD AS THE MONKEY WAS WHEN IT WAS TWICE AS OLD AS 
 ITS MOTHER WAS WHEN SHE WAS ONE THIRD AS OLD AS THE
 MONKEY WAS WHEN IT WAS AS OLD AS ITS MOTHER WAS WHEN 
 SHE WAS 3 TIMES AS OLD AS THE MONKEY WAS WHEN IT WAS AS OLD AS ITS
 MOTHER WAS WHEN SHE WAS 3 TIMES AS OLD AS THE MONKEY 
 WAS WHEN IT WAS ONE FOURTH WAS OLD AS IT IS NOW.

 HOW LONG IS THE BANANA?
 Job cpu time:       0 days  0 hours  3 minutes 10.2 seconds.
 File lengths (MBytes):  RWF=      5 Int=      0 D2E=      0 Chk=      2 Scr=      1
 Normal termination of Gaussian 09 at Tue Jun 15 11:12:07 2021.
