 Entering Gaussian System, Link 0=/usr/local/apps//g09/g09
 Input=0.com
 Output=0.out
 Initial command:
 /usr/local/apps//g09/l1.exe "/tmp/bnp.472685.sequoia/Gau-18536.inp" -scrdir="/tmp/bnp.472685.sequoia/"
 Entering Link 1 = /usr/local/apps//g09/l1.exe PID=     18550.
  
 Copyright (c) 1988,1990,1992,1993,1995,1998,2003,2009,2013,
            Gaussian, Inc.  All Rights Reserved.
  
 This is part of the Gaussian(R) 09 program.  It is based on
 the Gaussian(R) 03 system (copyright 2003, Gaussian, Inc.),
 the Gaussian(R) 98 system (copyright 1998, Gaussian, Inc.),
 the Gaussian(R) 94 system (copyright 1995, Gaussian, Inc.),
 the Gaussian 92(TM) system (copyright 1992, Gaussian, Inc.),
 the Gaussian 90(TM) system (copyright 1990, Gaussian, Inc.),
 the Gaussian 88(TM) system (copyright 1988, Gaussian, Inc.),
 the Gaussian 86(TM) system (copyright 1986, Carnegie Mellon
 University), and the Gaussian 82(TM) system (copyright 1983,
 Carnegie Mellon University). Gaussian is a federally registered
 trademark of Gaussian, Inc.
  
 This software contains proprietary and confidential information,
 including trade secrets, belonging to Gaussian, Inc.
  
 This software is provided under written license and may be
 used, copied, transmitted, or stored only in accord with that
 written license.
  
 The following legend is applicable only to US Government
 contracts under FAR:
  
                    RESTRICTED RIGHTS LEGEND
  
 Use, reproduction and disclosure by the US Government is
 subject to restrictions as set forth in subparagraphs (a)
 and (c) of the Commercial Computer Software - Restricted
 Rights clause in FAR 52.227-19.
  
 Gaussian, Inc.
 340 Quinnipiac St., Bldg. 40, Wallingford CT 06492
  
  
 ---------------------------------------------------------------
 Warning -- This program may not be used in any manner that
 competes with the business of Gaussian, Inc. or will provide
 assistance to any competitor of Gaussian, Inc.  The licensee
 of this program is prohibited from giving any competitor of
 Gaussian, Inc. access to this program.  By using this program,
 the user acknowledges that Gaussian, Inc. is engaged in the
 business of creating and licensing software in the field of
 computational chemistry and represents and warrants to the
 licensee that it is not a competitor of Gaussian, Inc. and that
 it will not use this program in any manner prohibited above.
 ---------------------------------------------------------------
  

 Cite this work as:
 Gaussian 09, Revision D.01,
 M. J. Frisch, G. W. Trucks, H. B. Schlegel, G. E. Scuseria, 
 M. A. Robb, J. R. Cheeseman, G. Scalmani, V. Barone, B. Mennucci, 
 G. A. Petersson, H. Nakatsuji, M. Caricato, X. Li, H. P. Hratchian, 
 A. F. Izmaylov, J. Bloino, G. Zheng, J. L. Sonnenberg, M. Hada, 
 M. Ehara, K. Toyota, R. Fukuda, J. Hasegawa, M. Ishida, T. Nakajima, 
 Y. Honda, O. Kitao, H. Nakai, T. Vreven, J. A. Montgomery, Jr., 
 J. E. Peralta, F. Ogliaro, M. Bearpark, J. J. Heyd, E. Brothers, 
 K. N. Kudin, V. N. Staroverov, T. Keith, R. Kobayashi, J. Normand, 
 K. Raghavachari, A. Rendell, J. C. Burant, S. S. Iyengar, J. Tomasi, 
 M. Cossi, N. Rega, J. M. Millam, M. Klene, J. E. Knox, J. B. Cross, 
 V. Bakken, C. Adamo, J. Jaramillo, R. Gomperts, R. E. Stratmann, 
 O. Yazyev, A. J. Austin, R. Cammi, C. Pomelli, J. W. Ochterski, 
 R. L. Martin, K. Morokuma, V. G. Zakrzewski, G. A. Voth, 
 P. Salvador, J. J. Dannenberg, S. Dapprich, A. D. Daniels, 
 O. Farkas, J. B. Foresman, J. V. Ortiz, J. Cioslowski, 
 and D. J. Fox, Gaussian, Inc., Wallingford CT, 2013.
 
 ******************************************
 Gaussian 09:  ES64L-G09RevD.01 24-Apr-2013
                15-Jun-2021 
 ******************************************
 -------------------
 #N B3LYP/STO-3G OPT
 -------------------
 1/14=-1,18=20,19=15,26=3,38=1/1,3;
 2/9=110,12=2,17=6,18=5,40=1/2;
 3/6=3,11=2,16=1,25=1,30=1,71=1,74=-5/1,2,3;
 4//1;
 5/5=2,38=5/2;
 6/7=2,8=2,9=2,10=2,28=1/1;
 7//1,2,3,16;
 1/14=-1,18=20,19=15,26=3/3(2);
 2/9=110/2;
 99//99;
 2/9=110/2;
 3/6=3,11=2,16=1,25=1,30=1,71=1,74=-5/1,2,3;
 4/5=5,16=3,69=1/1;
 5/5=2,38=5/2;
 7//1,2,3,16;
 1/14=-1,18=20,19=15,26=3/3(-5);
 2/9=110/2;
 6/7=2,8=2,9=2,10=2,19=2,28=1/1;
 99/9=1/99;
 -----
 1Naph
 -----
 Symbolic Z-matrix:
 Charge = -1 Multiplicity = 1
 N                     2.40395   1.53861  -3.15804 
 C                     3.45972   1.26212  -2.77414 
 C                     4.77607   0.89621  -2.29867 
 C                     5.89305   1.05848  -3.13576 
 C                     7.15023   0.62206  -2.72518 
 C                     7.34028   0.14716  -1.43842 
 C                     6.27668   0.13639  -0.52747 
 C                     4.96106   0.44012  -0.96157 
 C                     3.92398   0.32517   0.0002 
 C                     4.19754   0.03487   1.33951 
 C                     5.50596  -0.16213   1.75368 
 C                     6.53854  -0.14235   0.82083 
 N                     5.89345   2.53371  -5.26253 
 C                     5.86023   1.83798  -4.33533 
 H                     8.34144  -0.15711  -1.1406 
 H                     2.88215   0.4932   -0.27517 
 H                     3.38732  -0.01444   2.06368 
 H                     5.73065  -0.33687   2.80598 
 H                     7.55814  -0.30488   1.1659 
 

 GradGradGradGradGradGradGradGradGradGradGradGradGradGradGradGradGradGrad
 Berny optimization.
 Initialization pass.
                           ----------------------------
                           !    Initial Parameters    !
                           ! (Angstroms and Degrees)  !
 --------------------------                            --------------------------
 ! Name  Definition              Value          Derivative Info.                !
 --------------------------------------------------------------------------------
 ! R1    R(1,2)                  1.1569         estimate D2E/DX2                !
 ! R2    R(2,3)                  1.4466         estimate D2E/DX2                !
 ! R3    R(3,4)                  1.4052         estimate D2E/DX2                !
 ! R4    R(3,8)                  1.4248         estimate D2E/DX2                !
 ! R5    R(4,5)                  1.3927         estimate D2E/DX2                !
 ! R6    R(4,14)                 1.431          estimate D2E/DX2                !
 ! R7    R(5,6)                  1.3847         estimate D2E/DX2                !
 ! R8    R(6,7)                  1.4004         estimate D2E/DX2                !
 ! R9    R(6,15)                 1.0879         estimate D2E/DX2                !
 ! R10   R(7,8)                  1.4183         estimate D2E/DX2                !
 ! R11   R(7,12)                 1.4015         estimate D2E/DX2                !
 ! R12   R(8,9)                  1.4191         estimate D2E/DX2                !
 ! R13   R(9,10)                 1.3974         estimate D2E/DX2                !
 ! R14   R(9,16)                 1.0906         estimate D2E/DX2                !
 ! R15   R(10,11)                1.3865         estimate D2E/DX2                !
 ! R16   R(10,17)                1.0878         estimate D2E/DX2                !
 ! R17   R(11,12)                1.3917         estimate D2E/DX2                !
 ! R18   R(11,18)                1.0901         estimate D2E/DX2                !
 ! R19   R(12,19)                1.0886         estimate D2E/DX2                !
 ! R20   R(13,14)                1.1597         estimate D2E/DX2                !
 ! A1    A(2,3,4)              119.8868         estimate D2E/DX2                !
 ! A2    A(2,3,8)              120.5009         estimate D2E/DX2                !
 ! A3    A(4,3,8)              119.5238         estimate D2E/DX2                !
 ! A4    A(3,4,5)              120.3799         estimate D2E/DX2                !
 ! A5    A(3,4,14)             122.9589         estimate D2E/DX2                !
 ! A6    A(5,4,14)             116.0113         estimate D2E/DX2                !
 ! A7    A(4,5,6)              120.3534         estimate D2E/DX2                !
 ! A8    A(5,6,7)              120.1901         estimate D2E/DX2                !
 ! A9    A(5,6,15)             118.464          estimate D2E/DX2                !
 ! A10   A(7,6,15)             121.2443         estimate D2E/DX2                !
 ! A11   A(6,7,8)              120.2492         estimate D2E/DX2                !
 ! A12   A(6,7,12)             119.0398         estimate D2E/DX2                !
 ! A13   A(8,7,12)             120.6882         estimate D2E/DX2                !
 ! A14   A(3,8,7)              118.4388         estimate D2E/DX2                !
 ! A15   A(3,8,9)              124.5463         estimate D2E/DX2                !
 ! A16   A(7,8,9)              116.9445         estimate D2E/DX2                !
 ! A17   A(8,9,10)             121.555          estimate D2E/DX2                !
 ! A18   A(8,9,16)             120.9651         estimate D2E/DX2                !
 ! A19   A(10,9,16)            117.4508         estimate D2E/DX2                !
 ! A20   A(9,10,11)            120.0362         estimate D2E/DX2                !
 ! A21   A(9,10,17)            120.1083         estimate D2E/DX2                !
 ! A22   A(11,10,17)           119.8405         estimate D2E/DX2                !
 ! A23   A(10,11,12)           119.8635         estimate D2E/DX2                !
 ! A24   A(10,11,18)           120.3743         estimate D2E/DX2                !
 ! A25   A(12,11,18)           119.7616         estimate D2E/DX2                !
 ! A26   A(7,12,11)            120.6008         estimate D2E/DX2                !
 ! A27   A(7,12,19)            120.6401         estimate D2E/DX2                !
 ! A28   A(11,12,19)           118.7068         estimate D2E/DX2                !
 ! A29   L(1,2,3,13,-1)        180.2632         estimate D2E/DX2                !
 ! A30   L(4,14,13,1,-1)       182.4564         estimate D2E/DX2                !
 ! A31   L(1,2,3,13,-2)        180.8267         estimate D2E/DX2                !
 ! A32   L(4,14,13,1,-2)       175.5766         estimate D2E/DX2                !
 ! D1    D(2,3,4,5)           -175.4202         estimate D2E/DX2                !
 ! D2    D(2,3,4,14)            14.1935         estimate D2E/DX2                !
 ! D3    D(8,3,4,5)              7.9826         estimate D2E/DX2                !
 ! D4    D(8,3,4,14)          -162.4038         estimate D2E/DX2                !
 ! D5    D(2,3,8,7)           -177.8851         estimate D2E/DX2                !
 ! D6    D(2,3,8,9)             -1.0381         estimate D2E/DX2                !
 ! D7    D(4,3,8,7)             -1.3091         estimate D2E/DX2                !
 ! D8    D(4,3,8,9)            175.5379         estimate D2E/DX2                !
 ! D9    D(3,4,5,6)             -6.5169         estimate D2E/DX2                !
 ! D10   D(14,4,5,6)           164.5129         estimate D2E/DX2                !
 ! D11   D(4,5,6,7)             -1.759          estimate D2E/DX2                !
 ! D12   D(4,5,6,15)          -178.1405         estimate D2E/DX2                !
 ! D13   D(5,6,7,8)              8.4793         estimate D2E/DX2                !
 ! D14   D(5,6,7,12)          -169.7997         estimate D2E/DX2                !
 ! D15   D(15,6,7,8)          -175.2416         estimate D2E/DX2                !
 ! D16   D(15,6,7,12)            6.4794         estimate D2E/DX2                !
 ! D17   D(6,7,8,3)             -6.839          estimate D2E/DX2                !
 ! D18   D(6,7,8,9)            176.0741         estimate D2E/DX2                !
 ! D19   D(12,7,8,3)           171.4113         estimate D2E/DX2                !
 ! D20   D(12,7,8,9)            -5.6756         estimate D2E/DX2                !
 ! D21   D(6,7,12,11)         -179.9696         estimate D2E/DX2                !
 ! D22   D(6,7,12,19)            2.6932         estimate D2E/DX2                !
 ! D23   D(8,7,12,11)            1.7592         estimate D2E/DX2                !
 ! D24   D(8,7,12,19)         -175.578          estimate D2E/DX2                !
 ! D25   D(3,8,9,10)          -171.7162         estimate D2E/DX2                !
 ! D26   D(3,8,9,16)             6.2695         estimate D2E/DX2                !
 ! D27   D(7,8,9,10)             5.1737         estimate D2E/DX2                !
 ! D28   D(7,8,9,16)          -176.8406         estimate D2E/DX2                !
 ! D29   D(8,9,10,11)           -0.6742         estimate D2E/DX2                !
 ! D30   D(8,9,10,17)          177.9151         estimate D2E/DX2                !
 ! D31   D(16,9,10,11)        -178.7278         estimate D2E/DX2                !
 ! D32   D(16,9,10,17)          -0.1385         estimate D2E/DX2                !
 ! D33   D(9,10,11,12)          -3.4932         estimate D2E/DX2                !
 ! D34   D(9,10,11,18)         176.7714         estimate D2E/DX2                !
 ! D35   D(17,10,11,12)        177.9137         estimate D2E/DX2                !
 ! D36   D(17,10,11,18)         -1.8217         estimate D2E/DX2                !
 ! D37   D(10,11,12,7)           2.9614         estimate D2E/DX2                !
 ! D38   D(10,11,12,19)       -179.6507         estimate D2E/DX2                !
 ! D39   D(18,11,12,7)        -177.3016         estimate D2E/DX2                !
 ! D40   D(18,11,12,19)          0.0863         estimate D2E/DX2                !
 --------------------------------------------------------------------------------
 Trust Radius=3.00D-01 FncErr=1.00D-07 GrdErr=1.00D-06
 Number of steps in this run=    102 maximum allowed number of steps=    114.
 GradGradGradGradGradGradGradGradGradGradGradGradGradGradGradGradGradGrad

                          Input orientation:                          
 ---------------------------------------------------------------------
 Center     Atomic      Atomic             Coordinates (Angstroms)
 Number     Number       Type             X           Y           Z
 ---------------------------------------------------------------------
      1          7           0        2.403950    1.538610   -3.158040
      2          6           0        3.459720    1.262120   -2.774140
      3          6           0        4.776070    0.896210   -2.298670
      4          6           0        5.893050    1.058480   -3.135760
      5          6           0        7.150230    0.622060   -2.725180
      6          6           0        7.340280    0.147160   -1.438420
      7          6           0        6.276680    0.136390   -0.527470
      8          6           0        4.961060    0.440120   -0.961570
      9          6           0        3.923980    0.325170    0.000200
     10          6           0        4.197540    0.034870    1.339510
     11          6           0        5.505960   -0.162130    1.753680
     12          6           0        6.538540   -0.142350    0.820830
     13          7           0        5.893450    2.533710   -5.262530
     14          6           0        5.860230    1.837980   -4.335330
     15          1           0        8.341440   -0.157110   -1.140600
     16          1           0        2.882150    0.493200   -0.275170
     17          1           0        3.387320   -0.014440    2.063680
     18          1           0        5.730650   -0.336870    2.805980
     19          1           0        7.558140   -0.304880    1.165900
 ---------------------------------------------------------------------
                    Distance matrix (angstroms):
                    1          2          3          4          5
     1  N    0.000000
     2  C    1.156925   0.000000
     3  C    2.603488   1.446630   0.000000
     4  C    3.522051   2.468468   1.405239   0.000000
     5  C    4.853309   3.745923   2.427695   1.392674   0.000000
     6  C    5.409305   4.252767   2.806471   2.409552   1.384702
     7  C    4.887142   3.774925   2.442602   2.792955   2.414310
     8  C    3.545416   2.493013   1.424807   2.445011   2.817071
     9  C    3.709098   2.964857   2.517329   3.774815   4.233737
    10  C    5.070124   4.355759   3.783247   4.893932   5.058149
    11  C    6.053096   5.168824   4.251395   5.054340   4.835159
    12  C    5.979287   4.937153   3.730441   4.184884   3.678678
    13  N    4.194724   3.705680   3.565727   2.588330   3.416438
    14  C    3.663537   2.920852   2.492051   1.430967   2.394816
    15  H    6.496100   5.339837   3.893902   3.384219   2.130019
    16  H    3.103626   2.677625   2.800697   4.191424   4.922973
    17  H    5.535823   5.003933   4.667763   5.870606   6.123545
    18  H    7.081941   6.233108   5.337524   6.105543   5.790379
    19  H    6.975714   5.897156   4.602801   4.809943   4.020710
                    6          7          8          9         10
     6  C    0.000000
     7  C    1.400425   0.000000
     8  C    2.444156   1.418291   0.000000
     9  C    3.711121   2.418527   1.419067   0.000000
    10  C    4.195988   2.796202   2.458080   1.397448   0.000000
    11  C    3.694576   2.426266   2.834114   2.411393   1.386473
    12  C    2.414708   1.401492   2.450442   2.779916   2.404312
    13  N    4.734211   5.321165   4.873472   6.037614   7.259975
    14  C    3.666266   4.191496   3.760954   4.983420   6.182196
    15  H    1.087933   2.173777   3.437398   4.587807   4.833188
    16  H    4.620370   3.422543   2.189938   1.090629   2.132489
    17  H    5.283627   3.883968   3.440265   2.159002   1.087801
    18  H    4.565099   3.410867   3.923062   3.402169   2.153869
    19  H    2.652223   2.168954   3.438892   3.868196   3.382189
                   11         12         13         14         15
    11  C    0.000000
    12  C    1.391697   0.000000
    13  N    7.526281   6.677178   0.000000
    14  C    6.418878   5.564872   1.159674   0.000000
    15  H    4.051769   2.664184   5.497588   4.510331   0.000000
    16  H    3.380838   3.869668   6.172955   5.211746   5.565583
    17  H    2.146287   3.389871   8.151510   7.105918   5.901785
    18  H    1.090117   2.152056   8.565488   7.466262   4.735402
    19  H    2.139464   1.088611   7.221738   6.143149   2.440356
                   16         17         18         19
    16  H    0.000000
    17  H    2.446041   0.000000
    18  H    4.277435   2.479146   0.000000
    19  H    4.957671   4.276225   2.455729   0.000000
 Stoichiometry    C12H5N2(1-)
 Framework group  C1[X(C12H5N2)]
 Deg. of freedom    51
 Full point group                 C1      NOp   1
 Largest Abelian subgroup         C1      NOp   1
 Largest concise Abelian subgroup C1      NOp   1
                         Standard orientation:                         
 ---------------------------------------------------------------------
 Center     Atomic      Atomic             Coordinates (Angstroms)
 Number     Number       Type             X           Y           Z
 ---------------------------------------------------------------------
      1          7           0        1.885620    2.830955   -0.141597
      2          6           0        1.397857    1.781878   -0.142472
      3          6           0        0.785568    0.471397   -0.164429
      4          6           0        1.592651   -0.678877   -0.150976
      5          6           0        1.019550   -1.942789   -0.267691
      6          6           0       -0.357303   -2.089934   -0.262940
      7          6           0       -1.184555   -0.971247   -0.103614
      8          6           0       -0.632162    0.334858   -0.126061
      9          6           0       -1.543164    1.419805   -0.044111
     10          6           0       -2.909937    1.213185    0.161074
     11          6           0       -3.407400   -0.075867    0.275891
     12          6           0       -2.555524   -1.164394    0.113908
     13          7           0        4.090882   -0.674307    0.525987
     14          6           0        2.985074   -0.649108    0.177566
     15          1           0       -0.771691   -3.093938   -0.325038
     16          1           0       -1.194502    2.451280   -0.107092
     17          1           0       -3.582409    2.063161    0.253984
     18          1           0       -4.463618   -0.242218    0.488227
     19          1           0       -2.967222   -2.168267    0.202328
 ---------------------------------------------------------------------
 Rotational constants (GHZ):      1.3566051      0.5690491      0.4068516
 Standard basis: STO-3G (5D, 7F)
 There are    75 symmetry adapted cartesian basis functions of A   symmetry.
 There are    75 symmetry adapted basis functions of A   symmetry.
    75 basis functions,   225 primitive gaussians,    75 cartesian basis functions
    46 alpha electrons       46 beta electrons
       nuclear repulsion energy       716.5706973964 Hartrees.
 NAtoms=   19 NActive=   19 NUniq=   19 SFac= 1.00D+00 NAtFMM=   60 NAOKFM=F Big=F
 Integral buffers will be    131072 words long.
 Raffenetti 2 integral format.
 Two-electron integral symmetry is turned on.
 One-electron integrals computed using PRISM.
 NBasis=    75 RedAO= T EigKep=  1.53D-01  NBF=    75
 NBsUse=    75 1.00D-06 EigRej= -1.00D+00 NBFU=    75
 ExpMin= 1.69D-01 ExpMax= 9.91D+01 ExpMxC= 9.91D+01 IAcc=1 IRadAn=         1 AccDes= 0.00D+00
 Harris functional with IExCor=  402 and IRadAn=       1 diagonalized for initial guess.
 HarFok:  IExCor=  402 AccDes= 0.00D+00 IRadAn=         1 IDoV= 1 UseB2=F ITyADJ=14
 ICtDFT=  3500011 ScaDFX=  1.000000  1.000000  1.000000  1.000000
 FoFCou: FMM=F IPFlag=           0 FMFlag=      100000 FMFlg1=           0
         NFxFlg=           0 DoJE=T BraDBF=F KetDBF=T FulRan=T
         wScrn=  0.000000 ICntrl=     500 IOpCl=  0 I1Cent=   200000004 NGrid=           0
         NMat0=    1 NMatS0=      1 NMatT0=    0 NMatD0=    1 NMtDS0=    0 NMtDT0=    0
 Petite list used in FoFCou.
 Keep R1 ints in memory in canonical form, NReq=4993994.
 Requested convergence on RMS density matrix=1.00D-08 within 128 cycles.
 Requested convergence on MAX density matrix=1.00D-06.
 Requested convergence on             energy=1.00D-06.
 No special actions if energy rises.
 Integral accuracy reduced to 1.0D-05 until final iterations.
 Initial convergence to 1.0D-05 achieved.  Increase integral accuracy.
 SCF Done:  E(RB3LYP) =  -562.489378855     A.U. after   21 cycles
            NFock= 21  Conv=0.77D-08     -V/T= 2.0130

 **********************************************************************

            Population analysis using the SCF density.

 **********************************************************************

 Orbital symmetries:
       Occupied  (A) (A) (A) (A) (A) (A) (A) (A) (A) (A) (A) (A)
                 (A) (A) (A) (A) (A) (A) (A) (A) (A) (A) (A) (A)
                 (A) (A) (A) (A) (A) (A) (A) (A) (A) (A) (A) (A)
                 (A) (A) (A) (A) (A) (A) (A) (A) (A) (A)
       Virtual   (A) (A) (A) (A) (A) (A) (A) (A) (A) (A) (A) (A)
                 (A) (A) (A) (A) (A) (A) (A) (A) (A) (A) (A) (A)
                 (A) (A) (A) (A) (A)
 The electronic state is 1-A.
 Alpha  occ. eigenvalues --  -13.96321 -13.95490  -9.87451  -9.87374  -9.87170
 Alpha  occ. eigenvalues --   -9.86563  -9.86432  -9.86368  -9.86303  -9.86235
 Alpha  occ. eigenvalues --   -9.85897  -9.85865  -9.80672  -9.69717  -0.72168
 Alpha  occ. eigenvalues --   -0.70980  -0.68285  -0.62838  -0.58411  -0.55611
 Alpha  occ. eigenvalues --   -0.51850  -0.45573  -0.42817  -0.40889  -0.34752
 Alpha  occ. eigenvalues --   -0.33443  -0.29597  -0.28011  -0.25516  -0.24189
 Alpha  occ. eigenvalues --   -0.23066  -0.20944  -0.19289  -0.16871  -0.16143
 Alpha  occ. eigenvalues --   -0.15185  -0.14708  -0.12937  -0.12832  -0.11785
 Alpha  occ. eigenvalues --   -0.10646  -0.09977  -0.07737  -0.02735   0.00749
 Alpha  occ. eigenvalues --    0.10756
 Alpha virt. eigenvalues --    0.17052   0.23777   0.24438   0.29896   0.31081
 Alpha virt. eigenvalues --    0.32566   0.36236   0.38844   0.45744   0.48738
 Alpha virt. eigenvalues --    0.48989   0.53341   0.55050   0.57430   0.59987
 Alpha virt. eigenvalues --    0.61711   0.63451   0.64890   0.70598   0.73212
 Alpha virt. eigenvalues --    0.75174   0.78090   0.80824   0.85693   0.89863
 Alpha virt. eigenvalues --    0.96995   0.98986   1.15145   1.19483
          Condensed to atoms (all electrons):
               1          2          3          4          5          6
     1  N    6.594216   0.684930  -0.011452  -0.000132  -0.000002   0.000000
     2  C    0.684930   4.905031   0.423438  -0.030215   0.001021   0.000039
     3  C   -0.011452   0.423438   4.810906   0.472676  -0.027539  -0.011471
     4  C   -0.000132  -0.030215   0.472676   4.804506   0.467626  -0.030597
     5  C   -0.000002   0.001021  -0.027539   0.467626   5.340226   0.503368
     6  C    0.000000   0.000039  -0.011471  -0.030597   0.503368   4.888130
     7  C   -0.000002   0.000890  -0.029911  -0.012465  -0.028432   0.466303
     8  C   -0.000040  -0.030109   0.475618  -0.030913  -0.011935  -0.031062
     9  C   -0.000106  -0.004237  -0.027625   0.000728   0.000043   0.000999
    10  C    0.000000   0.000014   0.000776  -0.000007   0.000000   0.000047
    11  C    0.000000   0.000000   0.000030  -0.000001  -0.000017   0.001051
    12  C    0.000000  -0.000005   0.000953   0.000066   0.001144  -0.035619
    13  N   -0.000009   0.000002   0.000051  -0.011351  -0.000220  -0.000002
    14  C    0.000009  -0.002744  -0.036449   0.423146  -0.040333   0.001398
    15  H    0.000000   0.000001  -0.000007   0.002087  -0.035354   0.388466
    16  H   -0.000106   0.001264  -0.003210   0.000015  -0.000001  -0.000020
    17  H    0.000000   0.000000  -0.000016   0.000000   0.000000   0.000001
    18  H    0.000000   0.000000   0.000001   0.000000   0.000000  -0.000023
    19  H    0.000000   0.000000  -0.000019   0.000001   0.000040  -0.004780
               7          8          9         10         11         12
     1  N   -0.000002  -0.000040  -0.000106   0.000000   0.000000   0.000000
     2  C    0.000890  -0.030109  -0.004237   0.000014   0.000000  -0.000005
     3  C   -0.029911   0.475618  -0.027625   0.000776   0.000030   0.000953
     4  C   -0.012465  -0.030913   0.000728  -0.000007  -0.000001   0.000066
     5  C   -0.028432  -0.011935   0.000043   0.000000  -0.000017   0.001144
     6  C    0.466303  -0.031062   0.000999   0.000047   0.001051  -0.035619
     7  C    4.793431   0.470804  -0.029941  -0.011135  -0.030043   0.482305
     8  C    0.470804   4.777469   0.481062  -0.027434  -0.009816  -0.028222
     9  C   -0.029941   0.481062   4.834100   0.517499  -0.031233  -0.012448
    10  C   -0.011135  -0.027434   0.517499   4.825931   0.494724  -0.031727
    11  C   -0.030043  -0.009816  -0.031233   0.494724   4.829166   0.516056
    12  C    0.482305  -0.028222  -0.012448  -0.031727   0.516056   4.839246
    13  N    0.000000  -0.000001   0.000000   0.000000   0.000000   0.000000
    14  C   -0.000015   0.000778  -0.000006   0.000000   0.000000   0.000001
    15  H   -0.030564   0.001254  -0.000022  -0.000001   0.000021  -0.004366
    16  H    0.001417  -0.024422   0.388177  -0.027844   0.001555   0.000053
    17  H    0.000036   0.001356  -0.025680   0.391005  -0.027069   0.001561
    18  H    0.001508   0.000028   0.001540  -0.026641   0.389245  -0.026317
    19  H   -0.025389   0.001342   0.000041   0.001558  -0.027943   0.391183
              13         14         15         16         17         18
     1  N   -0.000009   0.000009   0.000000  -0.000106   0.000000   0.000000
     2  C    0.000002  -0.002744   0.000001   0.001264   0.000000   0.000000
     3  C    0.000051  -0.036449  -0.000007  -0.003210  -0.000016   0.000001
     4  C   -0.011351   0.423146   0.002087   0.000015   0.000000   0.000000
     5  C   -0.000220  -0.040333  -0.035354  -0.000001   0.000000   0.000000
     6  C   -0.000002   0.001398   0.388466  -0.000020   0.000001  -0.000023
     7  C    0.000000  -0.000015  -0.030564   0.001417   0.000036   0.001508
     8  C   -0.000001   0.000778   0.001254  -0.024422   0.001356   0.000028
     9  C    0.000000  -0.000006  -0.000022   0.388177  -0.025680   0.001540
    10  C    0.000000   0.000000  -0.000001  -0.027844   0.391005  -0.026641
    11  C    0.000000   0.000000   0.000021   0.001555  -0.027069   0.389245
    12  C    0.000000   0.000001  -0.004366   0.000053   0.001561  -0.026317
    13  N    6.591870   0.687004   0.000000   0.000000   0.000000   0.000000
    14  C    0.687004   4.903193  -0.000007   0.000000   0.000000   0.000000
    15  H    0.000000  -0.000007   0.644696   0.000001   0.000000  -0.000001
    16  H    0.000000   0.000000   0.000001   0.603385  -0.004206  -0.000039
    17  H    0.000000   0.000000   0.000000  -0.004206   0.615285  -0.003940
    18  H    0.000000   0.000000  -0.000001  -0.000039  -0.003940   0.620674
    19  H    0.000000   0.000000   0.001098   0.000002  -0.000041  -0.004023
              19
     1  N    0.000000
     2  C    0.000000
     3  C   -0.000019
     4  C    0.000001
     5  C    0.000040
     6  C   -0.004780
     7  C   -0.025389
     8  C    0.001342
     9  C    0.000041
    10  C    0.001558
    11  C   -0.027943
    12  C    0.391183
    13  N    0.000000
    14  C    0.000000
    15  H    0.001098
    16  H    0.000002
    17  H   -0.000041
    18  H   -0.004023
    19  H    0.611780
 Mulliken charges:
               1
     1  N   -0.267304
     2  C    0.050682
     3  C   -0.036751
     4  C   -0.055171
     5  C   -0.169635
     6  C   -0.136227
     7  C   -0.018797
     8  C   -0.015756
     9  C   -0.092893
    10  C   -0.106766
    11  C   -0.105726
    12  C   -0.093862
    13  N   -0.267344
    14  C    0.064027
    15  H    0.032698
    16  H    0.063979
    17  H    0.051708
    18  H    0.047987
    19  H    0.055149
 Sum of Mulliken charges =  -1.00000
 Mulliken charges with hydrogens summed into heavy atoms:
               1
     1  N   -0.267304
     2  C    0.050682
     3  C   -0.036751
     4  C   -0.055171
     5  C   -0.169635
     6  C   -0.103529
     7  C   -0.018797
     8  C   -0.015756
     9  C   -0.028914
    10  C   -0.055058
    11  C   -0.057738
    12  C   -0.038713
    13  N   -0.267344
    14  C    0.064027
 Electronic spatial extent (au):  <R**2>=           2564.5667
 Charge=             -1.0000 electrons
 Dipole moment (field-independent basis, Debye):
    X=             -6.8289    Y=              0.6722    Z=             -0.1524  Tot=              6.8636
 Quadrupole moment (field-independent basis, Debye-Ang):
   XX=           -109.1695   YY=            -94.4129   ZZ=            -74.8442
   XY=              0.0917   XZ=             -2.9970   YZ=             -0.3300
 Traceless Quadrupole moment (field-independent basis, Debye-Ang):
   XX=            -16.3606   YY=             -1.6040   ZZ=             17.9647
   XY=              0.0917   XZ=             -2.9970   YZ=             -0.3300
 Octapole moment (field-independent basis, Debye-Ang**2):
  XXX=           -104.6829  YYY=            -13.0879  ZZZ=              0.7443  XYY=            -39.3265
  XXY=              5.9922  XXZ=            -14.0790  XZZ=              4.3320  YZZ=              2.7897
  YYZ=              5.3213  XYZ=              2.3114
 Hexadecapole moment (field-independent basis, Debye-Ang**3):
 XXXX=          -2762.6437 YYYY=          -1140.7486 ZZZZ=            -81.3592 XXXY=             58.0048
 XXXZ=            -79.9355 YYYX=            -52.8191 YYYZ=             -3.7307 ZZZX=              3.7912
 ZZZY=             -2.4305 XXYY=           -602.9174 XXZZ=           -400.7661 YYZZ=           -178.8954
 XXYZ=             10.8989 YYXZ=              5.9959 ZZXY=              4.5404
 N-N= 7.165706973964D+02 E-N=-2.755565967524D+03  KE= 5.552897613657D+02
 Calling FoFJK, ICntrl=      2127 FMM=F ISym2X=0 I1Cent= 0 IOpClX= 0 NMat=1 NMatS=1 NMatT=0.
 ***** Axes restored to original set *****
 -------------------------------------------------------------------
 Center     Atomic                   Forces (Hartrees/Bohr)
 Number     Number              X              Y              Z
 -------------------------------------------------------------------
      1        7          -0.107575114    0.031451605   -0.039990643
      2        6           0.096172573   -0.036690166    0.040183085
      3        6          -0.033242394    0.000353294   -0.012604800
      4        6           0.007986676   -0.006063350    0.019040504
      5        6           0.050375382   -0.010507602   -0.022677448
      6        6           0.007114551    0.011582406   -0.040777613
      7        6           0.022478667    0.005131646    0.019211059
      8        6          -0.017522281    0.000875198    0.005063230
      9        6          -0.013950167   -0.002176404    0.016089403
     10        6          -0.024087999    0.006685678   -0.016549358
     11        6           0.029863239   -0.008053738    0.009977692
     12        6          -0.012053958   -0.001302336    0.035981565
     13        7           0.003277559    0.060034512   -0.089292154
     14        6          -0.010632882   -0.036502420    0.065948691
     15        1           0.004814337   -0.013526028    0.009146862
     16        1          -0.004361825    0.002893363   -0.006613784
     17        1          -0.006803046    0.000068806    0.003924223
     18        1           0.000177511   -0.003279090    0.006047005
     19        1           0.007969171   -0.000975373   -0.002107520
 -------------------------------------------------------------------
 Cartesian Forces:  Max     0.107575114 RMS     0.031377321

 GradGradGradGradGradGradGradGradGradGradGradGradGradGradGradGradGradGrad
 Berny optimization.
 FormGI is forming the generalized inverse of G from B-inverse, IUseBI=4.
 Internal  Forces:  Max     0.118918656 RMS     0.021034976
 Search for a local minimum.
 Step number   1 out of a maximum of  102
 All quantities printed in internal units (Hartrees-Bohrs-Radians)
 Mixed Optimization -- RFO/linear search
 Second derivative matrix not updated -- first step.
 ITU=  0
     Eigenvalues ---    0.01472   0.01472   0.01857   0.01864   0.01913
     Eigenvalues ---    0.01953   0.01990   0.02065   0.02073   0.02132
     Eigenvalues ---    0.02150   0.02158   0.02188   0.02206   0.02236
     Eigenvalues ---    0.02244   0.04871   0.04871   0.15978   0.15984
     Eigenvalues ---    0.15990   0.15996   0.16000   0.21986   0.22506
     Eigenvalues ---    0.23344   0.24428   0.24769   0.24907   0.24962
     Eigenvalues ---    0.24988   0.34740   0.34799   0.34974   0.35053
     Eigenvalues ---    0.35068   0.38349   0.38690   0.40107   0.40533
     Eigenvalues ---    0.40851   0.42928   0.43645   0.45157   0.45731
     Eigenvalues ---    0.45820   0.45985   0.47345   0.47542   1.28007
     Eigenvalues ---    1.29827
 RFO step:  Lambda=-5.82254453D-02 EMin= 1.47192650D-02
 Linear search not attempted -- first point.
 Maximum step size (   0.300) exceeded in Quadratic search.
    -- Step size scaled by   0.889
 Iteration  1 RMS(Cart)=  0.05708191 RMS(Int)=  0.00164351
 Iteration  2 RMS(Cart)=  0.00227508 RMS(Int)=  0.00062019
 Iteration  3 RMS(Cart)=  0.00000381 RMS(Int)=  0.00062019
 Iteration  4 RMS(Cart)=  0.00000000 RMS(Int)=  0.00062019
 Variable       Old X    -DE/DX   Delta X   Delta X   Delta X     New X
                                 (Linear)    (Quad)   (Total)
    R1        2.18627   0.11892   0.00000   0.07793   0.07793   2.26420
    R2        2.73374   0.00896   0.00000   0.01789   0.01789   2.75162
    R3        2.65552   0.03694   0.00000   0.06456   0.06441   2.71992
    R4        2.69250   0.01948   0.00000   0.03613   0.03601   2.72851
    R5        2.63177   0.03867   0.00000   0.06505   0.06503   2.69680
    R6        2.70414   0.03260   0.00000   0.06209   0.06209   2.76622
    R7        2.61671   0.01716   0.00000   0.02843   0.02855   2.64526
    R8        2.64642   0.05034   0.00000   0.08757   0.08771   2.73413
    R9        2.05590   0.01072   0.00000   0.02330   0.02330   2.07920
   R10        2.68018   0.03563   0.00000   0.06580   0.06599   2.74617
   R11        2.64844   0.03620   0.00000   0.06392   0.06410   2.71253
   R12        2.68165   0.01598   0.00000   0.02854   0.02846   2.71011
   R13        2.64079   0.00015   0.00000  -0.00079  -0.00097   2.63982
   R14        2.06099   0.00628   0.00000   0.01376   0.01376   2.07476
   R15        2.62006   0.03786   0.00000   0.06229   0.06217   2.68222
   R16        2.05565   0.00768   0.00000   0.01669   0.01669   2.07233
   R17        2.62993   0.00683   0.00000   0.01216   0.01221   2.64213
   R18        2.06002   0.00640   0.00000   0.01401   0.01401   2.07403
   R19        2.05718   0.00694   0.00000   0.01513   0.01513   2.07231
   R20        2.19147   0.10750   0.00000   0.07141   0.07141   2.26287
    A1        2.09242   0.00798   0.00000   0.02463   0.02498   2.11740
    A2        2.10314  -0.00524   0.00000  -0.01333  -0.01311   2.09002
    A3        2.08608  -0.00277   0.00000  -0.01199  -0.01265   2.07343
    A4        2.10103   0.01617   0.00000   0.04556   0.04427   2.14529
    A5        2.14604  -0.01679   0.00000  -0.04486  -0.04518   2.10086
    A6        2.02478   0.00155   0.00000   0.00830   0.00817   2.03295
    A7        2.10056  -0.02259   0.00000  -0.06866  -0.06868   2.03189
    A8        2.09771   0.01572   0.00000   0.04940   0.04934   2.14706
    A9        2.06759   0.00196   0.00000   0.01618   0.01582   2.08341
   A10        2.11611  -0.01749   0.00000  -0.06317  -0.06358   2.05254
   A11        2.09875  -0.00694   0.00000  -0.02254  -0.02292   2.07582
   A12        2.07764   0.02050   0.00000   0.05958   0.05869   2.13633
   A13        2.10641  -0.01343   0.00000  -0.03551  -0.03571   2.07070
   A14        2.06715  -0.00070   0.00000  -0.00427  -0.00472   2.06243
   A15        2.17374  -0.00681   0.00000  -0.01771  -0.01770   2.15604
   A16        2.04107   0.00760   0.00000   0.02284   0.02311   2.06417
   A17        2.12153   0.00007   0.00000  -0.00363  -0.00390   2.11764
   A18        2.11124  -0.00576   0.00000  -0.02141  -0.02130   2.08994
   A19        2.04990   0.00572   0.00000   0.02536   0.02546   2.07537
   A20        2.09503   0.00302   0.00000   0.00656   0.00623   2.10126
   A21        2.09629  -0.00318   0.00000  -0.00997  -0.00986   2.08643
   A22        2.09161   0.00019   0.00000   0.00373   0.00384   2.09545
   A23        2.09201  -0.00013   0.00000  -0.00042  -0.00049   2.09152
   A24        2.10093  -0.00087   0.00000  -0.00363  -0.00359   2.09734
   A25        2.09023   0.00101   0.00000   0.00404   0.00408   2.09431
   A26        2.10488   0.00316   0.00000   0.01296   0.01315   2.11803
   A27        2.10557  -0.00618   0.00000  -0.02500  -0.02524   2.08033
   A28        2.07183   0.00310   0.00000   0.01301   0.01281   2.08463
   A29        3.14619  -0.00455   0.00000  -0.05549  -0.05549   3.09070
   A30        3.18446   0.00207   0.00000   0.01724   0.01724   3.20170
   A31        3.15602  -0.00527   0.00000  -0.06418  -0.06418   3.09184
   A32        3.06439   0.01134   0.00000   0.09425   0.09425   3.15864
    D1       -3.06166   0.00725   0.00000   0.07095   0.07181  -2.98985
    D2        0.24772   0.00018   0.00000   0.00391   0.00459   0.25231
    D3        0.13932   0.00818   0.00000   0.08460   0.08581   0.22513
    D4       -2.83448   0.00110   0.00000   0.01756   0.01859  -2.81589
    D5       -3.10468  -0.00209   0.00000  -0.02696  -0.02563  -3.13031
    D6       -0.01812   0.00000   0.00000  -0.00684  -0.00659  -0.02470
    D7       -0.02285  -0.00257   0.00000  -0.03938  -0.03808  -0.06093
    D8        3.06371  -0.00047   0.00000  -0.01926  -0.01904   3.04468
    D9       -0.11374  -0.00522   0.00000  -0.05717  -0.05778  -0.17152
   D10        2.87129  -0.00046   0.00000   0.00007   0.00185   2.87314
   D11       -0.03070  -0.00165   0.00000  -0.01192  -0.01248  -0.04318
   D12       -3.10914  -0.00443   0.00000  -0.05235  -0.05453   3.11952
   D13        0.14799   0.00479   0.00000   0.04968   0.04936   0.19735
   D14       -2.96356   0.00008   0.00000  -0.00772  -0.00871  -2.97227
   D15       -3.05854   0.00841   0.00000   0.09431   0.09355  -2.96500
   D16        0.11309   0.00370   0.00000   0.03692   0.03547   0.14856
   D17       -0.11936  -0.00148   0.00000  -0.01999  -0.01858  -0.13794
   D18        3.07307  -0.00298   0.00000  -0.03736  -0.03536   3.03771
   D19        2.99169   0.00390   0.00000   0.04001   0.03893   3.03062
   D20       -0.09906   0.00240   0.00000   0.02264   0.02215  -0.07691
   D21       -3.14106   0.00399   0.00000   0.05277   0.05353  -3.08753
   D22        0.04700   0.00184   0.00000   0.02771   0.02844   0.07544
   D23        0.03070  -0.00086   0.00000  -0.00512  -0.00459   0.02611
   D24       -3.06441  -0.00302   0.00000  -0.03018  -0.02969  -3.09410
   D25       -2.99701  -0.00353   0.00000  -0.03736  -0.03642  -3.03344
   D26        0.10942  -0.00227   0.00000  -0.02557  -0.02508   0.08435
   D27        0.09030  -0.00169   0.00000  -0.01828  -0.01816   0.07214
   D28       -3.08645  -0.00044   0.00000  -0.00648  -0.00682  -3.09327
   D29       -0.01177  -0.00009   0.00000  -0.00240  -0.00245  -0.01421
   D30        3.10520   0.00112   0.00000   0.01228   0.01218   3.11738
   D31       -3.11939  -0.00109   0.00000  -0.01291  -0.01280  -3.13219
   D32       -0.00242   0.00013   0.00000   0.00177   0.00182  -0.00060
   D33       -0.06097   0.00197   0.00000   0.02182   0.02170  -0.03927
   D34        3.08524   0.00174   0.00000   0.02235   0.02255   3.10779
   D35        3.10518   0.00080   0.00000   0.00737   0.00719   3.11237
   D36       -0.03179   0.00057   0.00000   0.00791   0.00804  -0.02375
   D37        0.05169  -0.00211   0.00000  -0.01926  -0.01907   0.03262
   D38       -3.13550  -0.00023   0.00000   0.00432   0.00509  -3.13041
   D39       -3.09450  -0.00188   0.00000  -0.01981  -0.01994  -3.11444
   D40        0.00151  -0.00001   0.00000   0.00377   0.00422   0.00573
         Item               Value     Threshold  Converged?
 Maximum Force            0.118919     0.000450     NO 
 RMS     Force            0.021035     0.000300     NO 
 Maximum Displacement     0.199556     0.001800     NO 
 RMS     Displacement     0.056171     0.001200     NO 
 Predicted change in Energy=-3.272375D-02
 GradGradGradGradGradGradGradGradGradGradGradGradGradGradGradGradGradGrad

                          Input orientation:                          
 ---------------------------------------------------------------------
 Center     Atomic      Atomic             Coordinates (Angstroms)
 Number     Number       Type             X           Y           Z
 ---------------------------------------------------------------------
      1          7           0        2.361896    1.551432   -3.179530
      2          6           0        3.436688    1.213142   -2.772124
      3          6           0        4.777411    0.894626   -2.301783
      4          6           0        5.930677    1.090590   -3.140365
      5          6           0        7.233388    0.626264   -2.788345
      6          6           0        7.392583    0.149066   -1.482050
      7          6           0        6.328121    0.163554   -0.502226
      8          6           0        4.974019    0.458646   -0.939430
      9          6           0        3.911159    0.342346    0.016358
     10          6           0        4.168475    0.039558    1.355585
     11          6           0        5.498827   -0.178378    1.799752
     12          6           0        6.553868   -0.136212    0.883264
     13          7           0        5.821962    2.540030   -5.368130
     14          6           0        5.832577    1.899316   -4.356555
     15          1           0        8.371710   -0.240278   -1.165341
     16          1           0        2.873765    0.515090   -0.298898
     17          1           0        3.335397   -0.019814    2.066256
     18          1           0        5.699907   -0.384700    2.858792
     19          1           0        7.578010   -0.315976    1.231671
 ---------------------------------------------------------------------
                    Distance matrix (angstroms):
                    1          2          3          4          5
     1  N    0.000000
     2  C    1.198164   0.000000
     3  C    2.652649   1.456095   0.000000
     4  C    3.598626   2.524005   1.439321   0.000000
     5  C    4.973972   3.841825   2.518051   1.427085   0.000000
     6  C    5.491437   4.294840   2.840236   2.402841   1.399810
     7  C    4.982480   3.822886   2.485472   2.824382   2.501989
     8  C    3.610459   2.508270   1.443863   2.481666   2.924267
     9  C    3.751774   2.959568   2.535584   3.821417   4.357084
    10  C    5.110456   4.353251   3.805034   4.942023   5.187492
    11  C    6.133990   5.204883   4.300509   5.118744   4.970593
    12  C    6.076765   4.989933   3.789848   4.252411   3.811014
    13  N    4.211811   3.766884   3.633308   2.660006   3.508548
    14  C    3.681309   2.953226   2.518901   1.463823   2.458091
    15  H    6.586732   5.389677   3.936812   3.410362   2.163519
    16  H    3.103878   2.630781   2.789170   4.213057   5.021556
    17  H    5.561906   4.994033   4.689923   5.922617   6.259306
    18  H    7.166050   6.275547   5.396222   6.182203   5.938331
    19  H    7.081931   5.959793   4.668427   4.879225   4.143322
                    6          7          8          9         10
     6  C    0.000000
     7  C    1.446840   0.000000
     8  C    2.497945   1.453210   0.000000
     9  C    3.795115   2.478427   1.434129   0.000000
    10  C    4.296398   2.851475   2.468122   1.396932   0.000000
    11  C    3.803125   2.470577   2.860829   2.443837   1.419372
    12  C    2.525775   1.435411   2.484349   2.822137   2.438050
    13  N    4.825471   5.438829   4.966342   6.121577   7.361707
    14  C    3.709416   4.256088   3.806494   5.023781   6.233496
    15  H    1.100265   2.186106   3.476181   4.651062   4.909233
    16  H    4.685460   3.478145   2.196482   1.097913   2.154000
    17  H    5.392565   3.948053   3.456610   2.159802   1.096630
    18  H    4.689667   3.462901   3.957858   3.436226   2.187445
    19  H    2.759517   2.190564   3.477713   3.918695   3.430261
                   11         12         13         14         15
    11  C    0.000000
    12  C    1.398157   0.000000
    13  N    7.672855   6.839436   0.000000
    14  C    6.506022   5.667392   1.197461   0.000000
    15  H    4.129052   2.740832   5.647545   4.605312   0.000000
    16  H    3.431644   3.919804   6.203980   5.209149   5.616823
    17  H    2.185542   3.430973   8.246570   7.153424   5.988011
    18  H    1.097528   2.166497   8.732193   7.569383   4.832498
    19  H    2.159781   1.096617   7.402557   6.259578   2.526135
                   16         17         18         19
    16  H    0.000000
    17  H    2.468437   0.000000
    18  H    4.332172   2.520350   0.000000
    19  H    5.016297   4.334052   2.485863   0.000000
 Stoichiometry    C12H5N2(1-)
 Framework group  C1[X(C12H5N2)]
 Deg. of freedom    51
 Full point group                 C1      NOp   1
 Largest Abelian subgroup         C1      NOp   1
 Largest concise Abelian subgroup C1      NOp   1
                         Standard orientation:                         
 ---------------------------------------------------------------------
 Center     Atomic      Atomic             Coordinates (Angstroms)
 Number     Number       Type             X           Y           Z
 ---------------------------------------------------------------------
      1          7           0        1.912837    2.867437   -0.143710
      2          6           0        1.378526    1.796139   -0.193004
      3          6           0        0.782302    0.467907   -0.170030
      4          6           0        1.597393   -0.717246   -0.118219
      5          6           0        1.065115   -2.031995   -0.275340
      6          6           0       -0.330262   -2.143302   -0.273647
      7          6           0       -1.211017   -1.013459   -0.070988
      8          6           0       -0.653372    0.328025   -0.106685
      9          6           0       -1.555321    1.440661   -0.034183
     10          6           0       -2.926754    1.252949    0.153845
     11          6           0       -3.464307   -0.056306    0.261119
     12          6           0       -2.623904   -1.166111    0.131124
     13          7           0        4.184141   -0.621608    0.494333
     14          6           0        3.016747   -0.624765    0.227698
     15          1           0       -0.792920   -3.131873   -0.412418
     16          1           0       -1.164494    2.464209   -0.105005
     17          1           0       -3.586832    2.125545    0.227806
     18          1           0       -4.537647   -0.198862    0.440520
     19          1           0       -3.047837   -2.174798    0.204604
 ---------------------------------------------------------------------
 Rotational constants (GHZ):      1.3107010      0.5519195      0.3938764
 Standard basis: STO-3G (5D, 7F)
 There are    75 symmetry adapted cartesian basis functions of A   symmetry.
 There are    75 symmetry adapted basis functions of A   symmetry.
    75 basis functions,   225 primitive gaussians,    75 cartesian basis functions
    46 alpha electrons       46 beta electrons
       nuclear repulsion energy       704.3158267465 Hartrees.
 NAtoms=   19 NActive=   19 NUniq=   19 SFac= 1.00D+00 NAtFMM=   60 NAOKFM=F Big=F
 Integral buffers will be    131072 words long.
 Raffenetti 2 integral format.
 Two-electron integral symmetry is turned on.
 One-electron integrals computed using PRISM.
 NBasis=    75 RedAO= T EigKep=  1.74D-01  NBF=    75
 NBsUse=    75 1.00D-06 EigRej= -1.00D+00 NBFU=    75
 Initial guess from the checkpoint file:  "/tmp/bnp.472685.sequoia/Gau-18550.chk"
 B after Tr=     0.000000    0.000000    0.000000
         Rot=    0.999996    0.002817   -0.000152   -0.000624 Ang=   0.33 deg.
 ExpMin= 1.69D-01 ExpMax= 9.91D+01 ExpMxC= 9.91D+01 IAcc=1 IRadAn=         1 AccDes= 0.00D+00
 Harris functional with IExCor=  402 and IRadAn=       1 diagonalized for initial guess.
 HarFok:  IExCor=  402 AccDes= 0.00D+00 IRadAn=         1 IDoV= 1 UseB2=F ITyADJ=14
 ICtDFT=  3500011 ScaDFX=  1.000000  1.000000  1.000000  1.000000
 FoFCou: FMM=F IPFlag=           0 FMFlag=      100000 FMFlg1=           0
         NFxFlg=           0 DoJE=T BraDBF=F KetDBF=T FulRan=T
         wScrn=  0.000000 ICntrl=     500 IOpCl=  0 I1Cent=   200000004 NGrid=           0
         NMat0=    1 NMatS0=      1 NMatT0=    0 NMatD0=    1 NMtDS0=    0 NMtDT0=    0
 Petite list used in FoFCou.
 Keep R1 ints in memory in canonical form, NReq=4993994.
 Requested convergence on RMS density matrix=1.00D-08 within 128 cycles.
 Requested convergence on MAX density matrix=1.00D-06.
 Requested convergence on             energy=1.00D-06.
 No special actions if energy rises.
 Integral accuracy reduced to 1.0D-05 until final iterations.
 Initial convergence to 1.0D-05 achieved.  Increase integral accuracy.
 SCF Done:  E(RB3LYP) =  -562.518614110     A.U. after   16 cycles
            NFock= 16  Conv=0.85D-08     -V/T= 2.0141
 Calling FoFJK, ICntrl=      2127 FMM=F ISym2X=0 I1Cent= 0 IOpClX= 0 NMat=1 NMatS=1 NMatT=0.
 ***** Axes restored to original set *****
 -------------------------------------------------------------------
 Center     Atomic                   Forces (Hartrees/Bohr)
 Number     Number              X              Y              Z
 -------------------------------------------------------------------
      1        7          -0.009365996    0.001673588   -0.003019327
      2        6           0.010320851   -0.003573314    0.002896095
      3        6          -0.007599589   -0.000103248   -0.010286333
      4        6          -0.000610086   -0.000414847    0.014589914
      5        6           0.013992975   -0.003266508   -0.004943606
      6        6          -0.007741326    0.005360602   -0.009844820
      7        6           0.009333353    0.004129767    0.005653553
      8        6           0.002357223   -0.002053806    0.003046955
      9        6          -0.002212093   -0.001819073    0.008415316
     10        6          -0.005053436    0.002517379   -0.006984331
     11        6           0.009918147   -0.002292405   -0.002790251
     12        6          -0.009608026    0.002722413    0.007484650
     13        7          -0.000489477    0.003667221   -0.006413906
     14        6          -0.003434525    0.000127386    0.001643377
     15        1          -0.001147908   -0.006270545    0.003273691
     16        1           0.000540936    0.001474052   -0.002640509
     17        1          -0.000295406    0.000033830    0.001016374
     18        1          -0.000926356   -0.001647630    0.000242663
     19        1           0.002020740   -0.000264862   -0.001339505
 -------------------------------------------------------------------
 Cartesian Forces:  Max     0.014589914 RMS     0.005530849

 GradGradGradGradGradGradGradGradGradGradGradGradGradGradGradGradGradGrad
 Berny optimization.
 Using GEDIIS/GDIIS optimizer.
 FormGI is forming the generalized inverse of G from B-inverse, IUseBI=4.
 Internal  Forces:  Max     0.009902286 RMS     0.003097421
 Search for a local minimum.
 Step number   2 out of a maximum of  102
 All quantities printed in internal units (Hartrees-Bohrs-Radians)
 Mixed Optimization -- RFO/linear search
 Update second derivatives using D2CorX and points    1    2
 DE= -2.92D-02 DEPred=-3.27D-02 R= 8.93D-01
 TightC=F SS=  1.41D+00  RLast= 3.70D-01 DXNew= 5.0454D-01 1.1088D+00
 Trust test= 8.93D-01 RLast= 3.70D-01 DXMaxT set to 5.05D-01
 ITU=  1  0
 Use linear search instead of GDIIS.
     Eigenvalues ---    0.01472   0.01505   0.01854   0.01872   0.01915
     Eigenvalues ---    0.01959   0.01997   0.02074   0.02092   0.02129
     Eigenvalues ---    0.02148   0.02185   0.02196   0.02208   0.02235
     Eigenvalues ---    0.02257   0.04870   0.05007   0.15794   0.15996
     Eigenvalues ---    0.15997   0.16000   0.16017   0.22002   0.22456
     Eigenvalues ---    0.22716   0.24262   0.24642   0.24868   0.24963
     Eigenvalues ---    0.25007   0.34749   0.34814   0.34967   0.35045
     Eigenvalues ---    0.35080   0.38574   0.38820   0.40108   0.40638
     Eigenvalues ---    0.40743   0.42998   0.43586   0.45363   0.45478
     Eigenvalues ---    0.45822   0.47040   0.47477   0.49872   1.28726
     Eigenvalues ---    1.31054
 RFO step:  Lambda=-6.72425022D-03 EMin= 1.47186979D-02
 Quartic linear search produced a step of  0.21475.
 Iteration  1 RMS(Cart)=  0.08853916 RMS(Int)=  0.00661986
 Iteration  2 RMS(Cart)=  0.00787259 RMS(Int)=  0.00102248
 Iteration  3 RMS(Cart)=  0.00003481 RMS(Int)=  0.00102224
 Iteration  4 RMS(Cart)=  0.00000003 RMS(Int)=  0.00102224
 Variable       Old X    -DE/DX   Delta X   Delta X   Delta X     New X
                                 (Linear)    (Quad)   (Total)
    R1        2.26420   0.00990   0.01674  -0.00718   0.00956   2.27376
    R2        2.75162  -0.00125   0.00384  -0.00768  -0.00384   2.74778
    R3        2.71992  -0.00045   0.01383  -0.01520  -0.00159   2.71833
    R4        2.72851   0.00365   0.00773   0.00241   0.00990   2.73841
    R5        2.69680   0.00804   0.01396   0.00639   0.02047   2.71727
    R6        2.76622   0.00632   0.01333   0.00496   0.01830   2.78452
    R7        2.64526   0.00073   0.00613  -0.00413   0.00227   2.64753
    R8        2.73413   0.00286   0.01884  -0.01111   0.00786   2.74199
    R9        2.07920   0.00214   0.00500   0.00215   0.00716   2.08636
   R10        2.74617   0.00116   0.01417  -0.01120   0.00314   2.74930
   R11        2.71253   0.00178   0.01376  -0.00930   0.00477   2.71730
   R12        2.71011   0.00177   0.00611  -0.00125   0.00475   2.71487
   R13        2.63982  -0.00489  -0.00021  -0.01218  -0.01269   2.62713
   R14        2.07476   0.00048   0.00296  -0.00136   0.00159   2.07635
   R15        2.68222   0.00561   0.01335   0.00083   0.01397   2.69620
   R16        2.07233   0.00088   0.00358  -0.00065   0.00293   2.07526
   R17        2.64213  -0.00505   0.00262  -0.01533  -0.01261   2.62953
   R18        2.07403   0.00037   0.00301  -0.00177   0.00124   2.07527
   R19        2.07231   0.00151   0.00325   0.00181   0.00506   2.07736
   R20        2.26287   0.00738   0.01533  -0.00804   0.00729   2.27017
    A1        2.11740   0.00215   0.00537   0.00774   0.01382   2.13122
    A2        2.09002   0.00019  -0.00282   0.00703   0.00474   2.09476
    A3        2.07343  -0.00233  -0.00272  -0.01450  -0.01847   2.05497
    A4        2.14529   0.00581   0.00951   0.01529   0.02052   2.16582
    A5        2.10086  -0.00808  -0.00970  -0.02163  -0.03351   2.06734
    A6        2.03295   0.00259   0.00175   0.01686   0.01631   2.04926
    A7        2.03189  -0.00916  -0.01475  -0.03565  -0.05054   1.98135
    A8        2.14706   0.00660   0.01060   0.01911   0.02874   2.17580
    A9        2.08341   0.00143   0.00340   0.01608   0.01837   2.10178
   A10        2.05254  -0.00800  -0.01365  -0.03391  -0.04849   2.00405
   A11        2.07582  -0.00210  -0.00492  -0.01011  -0.01700   2.05882
   A12        2.13633   0.00473   0.01260   0.01185   0.02196   2.15829
   A13        2.07070  -0.00269  -0.00767  -0.00411  -0.01291   2.05779
   A14        2.06243   0.00043  -0.00101  -0.00217  -0.00430   2.05813
   A15        2.15604  -0.00216  -0.00380  -0.00257  -0.00618   2.14986
   A16        2.06417   0.00175   0.00496   0.00561   0.01102   2.07519
   A17        2.11764  -0.00043  -0.00084  -0.00137  -0.00264   2.11500
   A18        2.08994  -0.00279  -0.00457  -0.01556  -0.01998   2.06996
   A19        2.07537   0.00323   0.00547   0.01721   0.02283   2.09820
   A20        2.10126  -0.00042   0.00134  -0.00293  -0.00218   2.09908
   A21        2.08643   0.00079  -0.00212   0.00732   0.00535   2.09178
   A22        2.09545  -0.00037   0.00083  -0.00420  -0.00322   2.09223
   A23        2.09152   0.00040  -0.00011   0.00236   0.00218   2.09370
   A24        2.09734  -0.00106  -0.00077  -0.00655  -0.00729   2.09004
   A25        2.09431   0.00066   0.00088   0.00417   0.00508   2.09939
   A26        2.11803   0.00149   0.00282   0.00432   0.00709   2.12511
   A27        2.08033  -0.00270  -0.00542  -0.01160  -0.01771   2.06263
   A28        2.08463   0.00124   0.00275   0.00824   0.01025   2.09488
   A29        3.09070   0.00220  -0.01192   0.14450   0.13259   3.22328
   A30        3.20170  -0.00089   0.00370  -0.02403  -0.02032   3.18138
   A31        3.09184   0.00178  -0.01378   0.12418   0.11040   3.20224
   A32        3.15864   0.00079   0.02024  -0.00849   0.01175   3.17039
    D1       -2.98985   0.00385   0.01542   0.12730   0.14361  -2.84624
    D2        0.25231  -0.00017   0.00099  -0.00262  -0.00028   0.25203
    D3        0.22513   0.00376   0.01843   0.12271   0.14207   0.36720
    D4       -2.81589  -0.00026   0.00399  -0.00722  -0.00182  -2.81771
    D5       -3.13031  -0.00150  -0.00550  -0.07010  -0.07386   3.07902
    D6       -0.02470  -0.00071  -0.00141  -0.04121  -0.04204  -0.06674
    D7       -0.06093  -0.00132  -0.00818  -0.06553  -0.07194  -0.13287
    D8        3.04468  -0.00053  -0.00409  -0.03664  -0.04011   3.00457
    D9       -0.17152  -0.00224  -0.01241  -0.06784  -0.08143  -0.25296
   D10        2.87314   0.00105   0.00040   0.05530   0.05840   2.93155
   D11       -0.04318  -0.00147  -0.00268  -0.04151  -0.04458  -0.08776
   D12        3.11952  -0.00322  -0.01171  -0.11446  -0.12876   2.99077
   D13        0.19735   0.00259   0.01060   0.08965   0.10004   0.29739
   D14       -2.97227  -0.00006  -0.00187  -0.01078  -0.01300  -2.98527
   D15       -2.96500   0.00442   0.02009   0.16194   0.18071  -2.78429
   D16        0.14856   0.00177   0.00762   0.06151   0.06767   0.21624
   D17       -0.13794  -0.00066  -0.00399  -0.03052  -0.03267  -0.17061
   D18        3.03771  -0.00133  -0.00759  -0.05771  -0.06275   2.97496
   D19        3.03062   0.00176   0.00836   0.06583   0.07317   3.10379
   D20       -0.07691   0.00110   0.00476   0.03864   0.04309  -0.03382
   D21       -3.08753   0.00259   0.01150   0.10154   0.11372  -2.97381
   D22        0.07544   0.00119   0.00611   0.04920   0.05621   0.13165
   D23        0.02611  -0.00005  -0.00099   0.00130   0.00068   0.02679
   D24       -3.09410  -0.00144  -0.00638  -0.05104  -0.05683   3.13225
   D25       -3.03344  -0.00180  -0.00782  -0.06861  -0.07542  -3.10886
   D26        0.08435  -0.00133  -0.00538  -0.05408  -0.05900   0.02535
   D27        0.07214  -0.00104  -0.00390  -0.03984  -0.04360   0.02853
   D28       -3.09327  -0.00057  -0.00146  -0.02531  -0.02718  -3.12045
   D29       -0.01421  -0.00003  -0.00053   0.00038  -0.00022  -0.01444
   D30        3.11738   0.00060   0.00261   0.02200   0.02459  -3.14122
   D31       -3.13219  -0.00042  -0.00275  -0.01359  -0.01633   3.13466
   D32       -0.00060   0.00020   0.00039   0.00803   0.00848   0.00788
   D33       -0.03927   0.00118   0.00466   0.04104   0.04551   0.00625
   D34        3.10779   0.00125   0.00484   0.04539   0.05035  -3.12504
   D35        3.11237   0.00055   0.00155   0.01924   0.02065   3.13302
   D36       -0.02375   0.00061   0.00173   0.02359   0.02548   0.00173
   D37        0.03262  -0.00117  -0.00410  -0.04155  -0.04556  -0.01294
   D38       -3.13041   0.00018   0.00109   0.01068   0.01266  -3.11775
   D39       -3.11444  -0.00125  -0.00428  -0.04592  -0.05046   3.11829
   D40        0.00573   0.00011   0.00091   0.00631   0.00776   0.01348
         Item               Value     Threshold  Converged?
 Maximum Force            0.009902     0.000450     NO 
 RMS     Force            0.003097     0.000300     NO 
 Maximum Displacement     0.555903     0.001800     NO 
 RMS     Displacement     0.089429     0.001200     NO 
 Predicted change in Energy=-4.185028D-03
 GradGradGradGradGradGradGradGradGradGradGradGradGradGradGradGradGradGrad

                          Input orientation:                          
 ---------------------------------------------------------------------
 Center     Atomic      Atomic             Coordinates (Angstroms)
 Number     Number       Type             X           Y           Z
 ---------------------------------------------------------------------
      1          7           0        2.318524    1.257261   -3.172998
      2          6           0        3.460637    1.168376   -2.805001
      3          6           0        4.803651    0.934510   -2.299115
      4          6           0        5.974538    1.170551   -3.100697
      5          6           0        7.277608    0.642676   -2.799104
      6          6           0        7.390808    0.144252   -1.494652
      7          6           0        6.354781    0.236871   -0.482988
      8          6           0        4.999627    0.535927   -0.919759
      9          6           0        3.925194    0.428925    0.027919
     10          6           0        4.165402    0.079803    1.351970
     11          6           0        5.493601   -0.197966    1.792873
     12          6           0        6.555224   -0.112434    0.897398
     13          7           0        5.761690    2.572626   -5.367729
     14          6           0        5.831112    1.957484   -4.338189
     15          1           0        8.291455   -0.414734   -1.185935
     16          1           0        2.901212    0.636311   -0.312257
     17          1           0        3.327592    0.004020    2.057897
     18          1           0        5.671720   -0.488156    2.836940
     19          1           0        7.576063   -0.348004    1.230327
 ---------------------------------------------------------------------
                    Distance matrix (angstroms):
                    1          2          3          4          5
     1  N    0.000000
     2  C    1.203223   0.000000
     3  C    2.653996   1.454063   0.000000
     4  C    3.657757   2.531233   1.438480   0.000000
     5  C    5.010991   3.853007   2.540791   1.437916   0.000000
     6  C    5.457445   4.267563   2.822243   2.374551   1.401013
     7  C    4.956685   3.825639   2.488177   2.805128   2.526001
     8  C    3.575714   2.514482   1.449103   2.471779   2.955086
     9  C    3.676058   2.964462   2.538186   3.812881   4.390493
    10  C    5.027197   4.354548   3.803723   4.928382   5.218627
    11  C    6.071135   5.209633   4.301500   5.104035   4.997561
    12  C    6.032730   4.992465   3.792335   4.238870   3.841375
    13  N    4.289804   3.719454   3.607998   2.674051   3.552540
    14  C    3.766465   2.931299   2.501994   1.473506   2.487941
    15  H    6.513055   5.335205   3.901846   3.398168   2.179063
    16  H    2.984786   2.609563   2.766912   4.184034   5.033616
    17  H    5.472759   5.002119   4.693412   5.914238   6.292930
    18  H    7.099983   6.282076   5.399684   6.172402   5.968471
    19  H    7.043285   5.959867   4.667770   4.860932   4.160149
                    6          7          8          9         10
     6  C    0.000000
     7  C    1.450997   0.000000
     8  C    2.490313   1.454870   0.000000
     9  C    3.796017   2.490142   1.436645   0.000000
    10  C    4.302401   2.860965   2.462668   1.390215   0.000000
    11  C    3.811080   2.471894   2.853241   2.442941   1.426767
    12  C    2.546761   1.437935   2.478369   2.822433   2.440254
    13  N    4.853015   5.446852   4.951093   6.089432   7.342796
    14  C    3.715665   4.254093   3.794451   5.003190   6.219179
    15  H    1.104054   2.160886   3.436675   4.609711   4.869275
    16  H    4.668688   3.480781   2.186888   1.098757   2.162760
    17  H    5.399073   3.959064   3.456162   2.158352   1.098181
    18  H    4.702966   3.466145   3.951359   3.432491   2.190138
    19  H    2.775274   2.183817   3.470191   3.921511   3.439538
                   11         12         13         14         15
    11  C    0.000000
    12  C    1.391486   0.000000
    13  N    7.682595   6.862293   0.000000
    14  C    6.507672   5.676290   1.201321   0.000000
    15  H    4.092465   2.728766   5.728125   4.649452   0.000000
    16  H    3.442103   3.921184   6.122862   5.151499   5.560820
    17  H    2.191491   3.431898   8.225721   7.140976   5.944555
    18  H    1.098185   2.164155   8.757458   7.582152   4.801242
    19  H    2.162317   1.099294   7.440186   6.274432   2.520825
                   16         17         18         19
    16  H    0.000000
    17  H    2.489823   0.000000
    18  H    4.342531   2.518746   0.000000
    19  H    5.020226   4.342614   2.495470   0.000000
 Stoichiometry    C12H5N2(1-)
 Framework group  C1[X(C12H5N2)]
 Deg. of freedom    51
 Full point group                 C1      NOp   1
 Largest Abelian subgroup         C1      NOp   1
 Largest concise Abelian subgroup C1      NOp   1
                         Standard orientation:                         
 ---------------------------------------------------------------------
 Center     Atomic      Atomic             Coordinates (Angstroms)
 Number     Number       Type             X           Y           Z
 ---------------------------------------------------------------------
      1          7           0        1.808777    2.895617   -0.345281
      2          6           0        1.393585    1.776113   -0.196713
      3          6           0        0.793739    0.453771   -0.119930
      4          6           0        1.588210   -0.742918   -0.042633
      5          6           0        1.085684   -2.062820   -0.312685
      6          6           0       -0.313184   -2.132403   -0.346817
      7          6           0       -1.202243   -1.029334   -0.033438
      8          6           0       -0.645739    0.314882   -0.027657
      9          6           0       -1.538847    1.435640    0.073381
     10          6           0       -2.911349    1.253262    0.198587
     11          6           0       -3.463831   -0.062132    0.211511
     12          6           0       -2.626618   -1.168553    0.105964
     13          7           0        4.196313   -0.561961    0.519151
     14          6           0        3.019912   -0.615277    0.281647
     15          1           0       -0.819050   -3.054173   -0.683528
     16          1           0       -1.114890    2.449177    0.056973
     17          1           0       -3.574067    2.125697    0.273844
     18          1           0       -4.550623   -0.195933    0.295117
     19          1           0       -3.052909   -2.181745    0.093197
 ---------------------------------------------------------------------
 Rotational constants (GHZ):      1.2983535      0.5534332      0.3950237
 Standard basis: STO-3G (5D, 7F)
 There are    75 symmetry adapted cartesian basis functions of A   symmetry.
 There are    75 symmetry adapted basis functions of A   symmetry.
    75 basis functions,   225 primitive gaussians,    75 cartesian basis functions
    46 alpha electrons       46 beta electrons
       nuclear repulsion energy       703.8282599022 Hartrees.
 NAtoms=   19 NActive=   19 NUniq=   19 SFac= 1.00D+00 NAtFMM=   60 NAOKFM=F Big=F
 Integral buffers will be    131072 words long.
 Raffenetti 2 integral format.
 Two-electron integral symmetry is turned on.
 One-electron integrals computed using PRISM.
 NBasis=    75 RedAO= T EigKep=  1.76D-01  NBF=    75
 NBsUse=    75 1.00D-06 EigRej= -1.00D+00 NBFU=    75
 Initial guess from the checkpoint file:  "/tmp/bnp.472685.sequoia/Gau-18550.chk"
 B after Tr=     0.000000    0.000000    0.000000
         Rot=    0.999995    0.001059   -0.000327   -0.002840 Ang=   0.35 deg.
 ExpMin= 1.69D-01 ExpMax= 9.91D+01 ExpMxC= 9.91D+01 IAcc=1 IRadAn=         1 AccDes= 0.00D+00
 Harris functional with IExCor=  402 and IRadAn=       1 diagonalized for initial guess.
 HarFok:  IExCor=  402 AccDes= 0.00D+00 IRadAn=         1 IDoV= 1 UseB2=F ITyADJ=14
 ICtDFT=  3500011 ScaDFX=  1.000000  1.000000  1.000000  1.000000
 FoFCou: FMM=F IPFlag=           0 FMFlag=      100000 FMFlg1=           0
         NFxFlg=           0 DoJE=T BraDBF=F KetDBF=T FulRan=T
         wScrn=  0.000000 ICntrl=     500 IOpCl=  0 I1Cent=   200000004 NGrid=           0
         NMat0=    1 NMatS0=      1 NMatT0=    0 NMatD0=    1 NMtDS0=    0 NMtDT0=    0
 Petite list used in FoFCou.
 Keep R1 ints in memory in canonical form, NReq=4993994.
 Requested convergence on RMS density matrix=1.00D-08 within 128 cycles.
 Requested convergence on MAX density matrix=1.00D-06.
 Requested convergence on             energy=1.00D-06.
 No special actions if energy rises.
 Integral accuracy reduced to 1.0D-05 until final iterations.
 Initial convergence to 1.0D-05 achieved.  Increase integral accuracy.
 SCF Done:  E(RB3LYP) =  -562.521350859     A.U. after   17 cycles
            NFock= 17  Conv=0.93D-08     -V/T= 2.0142
 Calling FoFJK, ICntrl=      2127 FMM=F ISym2X=0 I1Cent= 0 IOpClX= 0 NMat=1 NMatS=1 NMatT=0.
 ***** Axes restored to original set *****
 -------------------------------------------------------------------
 Center     Atomic                   Forces (Hartrees/Bohr)
 Number     Number              X              Y              Z
 -------------------------------------------------------------------
      1        7           0.002532964    0.004405857   -0.001342315
      2        6          -0.002414835   -0.009535807    0.003849108
      3        6          -0.000077409    0.006443655   -0.004951093
      4        6          -0.000150294   -0.000520982   -0.001747002
      5        6           0.000322616   -0.001294911    0.004621821
      6        6           0.001384304   -0.000718214   -0.002321544
      7        6          -0.002194834   -0.001577783    0.000997238
      8        6           0.001010236   -0.000039559    0.001088046
      9        6          -0.000577466    0.000094983    0.000615358
     10        6          -0.001176923   -0.000640453   -0.000243978
     11        6           0.000892794    0.000453349    0.000554546
     12        6           0.000377452    0.000045787   -0.000780276
     13        7          -0.000081490   -0.000678480    0.001930560
     14        6          -0.000914396    0.001714035   -0.002059203
     15        1           0.000543110    0.000768084   -0.000175902
     16        1           0.000438310    0.000466838   -0.000156988
     17        1           0.000622230    0.000258900    0.000327093
     18        1          -0.000351118   -0.000150788   -0.000243577
     19        1          -0.000185252    0.000505491    0.000038107
 -------------------------------------------------------------------
 Cartesian Forces:  Max     0.009535807 RMS     0.002173692

 GradGradGradGradGradGradGradGradGradGradGradGradGradGradGradGradGradGrad
 Berny optimization.
 Using GEDIIS/GDIIS optimizer.
 FormGI is forming the generalized inverse of G from B-inverse, IUseBI=4.
 Internal  Forces:  Max     0.008658569 RMS     0.001374419
 Search for a local minimum.
 Step number   3 out of a maximum of  102
 All quantities printed in internal units (Hartrees-Bohrs-Radians)
 Mixed Optimization -- RFO/linear search
 Update second derivatives using D2CorX and points    2    3
 DE= -2.74D-03 DEPred=-4.19D-03 R= 6.54D-01
 TightC=F SS=  1.41D+00  RLast= 4.78D-01 DXNew= 8.4853D-01 1.4349D+00
 Trust test= 6.54D-01 RLast= 4.78D-01 DXMaxT set to 8.49D-01
 ITU=  1  1  0
 Use linear search instead of GDIIS.
     Eigenvalues ---    0.01247   0.01474   0.01852   0.01895   0.01916
     Eigenvalues ---    0.01980   0.02029   0.02075   0.02089   0.02132
     Eigenvalues ---    0.02185   0.02194   0.02213   0.02233   0.02249
     Eigenvalues ---    0.04167   0.04875   0.05004   0.15243   0.15991
     Eigenvalues ---    0.15999   0.16002   0.16046   0.21577   0.22008
     Eigenvalues ---    0.22468   0.23951   0.24460   0.24743   0.24996
     Eigenvalues ---    0.25053   0.34749   0.34814   0.34952   0.35023
     Eigenvalues ---    0.35079   0.38472   0.38742   0.39799   0.40484
     Eigenvalues ---    0.40677   0.42958   0.43441   0.44786   0.45400
     Eigenvalues ---    0.45826   0.46923   0.47542   0.49747   1.28740
     Eigenvalues ---    1.30789
 RFO step:  Lambda=-3.48002358D-03 EMin= 1.24734781D-02
 Quartic linear search produced a step of -0.22981.
 Iteration  1 RMS(Cart)=  0.05043123 RMS(Int)=  0.01086971
 Iteration  2 RMS(Cart)=  0.01987482 RMS(Int)=  0.00087809
 Iteration  3 RMS(Cart)=  0.00091523 RMS(Int)=  0.00015111
 Iteration  4 RMS(Cart)=  0.00000142 RMS(Int)=  0.00015111
 Iteration  5 RMS(Cart)=  0.00000000 RMS(Int)=  0.00015111
 Variable       Old X    -DE/DX   Delta X   Delta X   Delta X     New X
                                 (Linear)    (Quad)   (Total)
    R1        2.27376  -0.00167  -0.00220   0.00012  -0.00207   2.27169
    R2        2.74778  -0.00178   0.00088  -0.00784  -0.00696   2.74083
    R3        2.71833  -0.00050   0.00036  -0.00719  -0.00680   2.71153
    R4        2.73841   0.00210  -0.00228   0.00839   0.00613   2.74454
    R5        2.71727   0.00178  -0.00470   0.01320   0.00850   2.72577
    R6        2.78452   0.00075  -0.00420   0.01017   0.00596   2.79048
    R7        2.64753  -0.00214  -0.00052  -0.00399  -0.00453   2.64300
    R8        2.74199   0.00107  -0.00181   0.00032  -0.00151   2.74047
    R9        2.08636   0.00000  -0.00165   0.00352   0.00187   2.08823
   R10        2.74930  -0.00028  -0.00072  -0.00372  -0.00449   2.74481
   R11        2.71730  -0.00073  -0.00110  -0.00295  -0.00410   2.71320
   R12        2.71487   0.00068  -0.00109   0.00252   0.00144   2.71630
   R13        2.62713   0.00030   0.00292  -0.00901  -0.00604   2.62109
   R14        2.07635  -0.00027  -0.00037  -0.00052  -0.00089   2.07546
   R15        2.69620   0.00040  -0.00321   0.00622   0.00306   2.69926
   R16        2.07526  -0.00028  -0.00067   0.00024  -0.00043   2.07483
   R17        2.62953  -0.00005   0.00290  -0.01077  -0.00788   2.62165
   R18        2.07527  -0.00025  -0.00029  -0.00075  -0.00104   2.07423
   R19        2.07736  -0.00027  -0.00116   0.00203   0.00086   2.07823
   R20        2.27017  -0.00201  -0.00168  -0.00130  -0.00298   2.26719
    A1        2.13122   0.00143  -0.00318   0.01248   0.00924   2.14047
    A2        2.09476  -0.00108  -0.00109   0.00137   0.00024   2.09500
    A3        2.05497  -0.00033   0.00424  -0.01293  -0.00867   2.04630
    A4        2.16582  -0.00120  -0.00472   0.00772   0.00356   2.16938
    A5        2.06734  -0.00115   0.00770  -0.02691  -0.01875   2.04859
    A6        2.04926   0.00239  -0.00375   0.01687   0.01360   2.06286
    A7        1.98135   0.00195   0.01161  -0.02605  -0.01456   1.96678
    A8        2.17580  -0.00085  -0.00661   0.01468   0.00813   2.18393
    A9        2.10178  -0.00007  -0.00422   0.01140   0.00747   2.10925
   A10        2.00405   0.00096   0.01114  -0.02757  -0.01617   1.98788
   A11        2.05882   0.00005   0.00391  -0.01095  -0.00682   2.05199
   A12        2.15829  -0.00048  -0.00505   0.01052   0.00600   2.16429
   A13        2.05779   0.00050   0.00297  -0.00569  -0.00255   2.05524
   A14        2.05813   0.00042   0.00099  -0.00140  -0.00037   2.05777
   A15        2.14986  -0.00008   0.00142  -0.00360  -0.00208   2.14778
   A16        2.07519  -0.00035  -0.00253   0.00505   0.00245   2.07763
   A17        2.11500   0.00000   0.00061  -0.00156  -0.00095   2.11405
   A18        2.06996  -0.00039   0.00459  -0.01516  -0.01056   2.05940
   A19        2.09820   0.00039  -0.00525   0.01674   0.01150   2.10970
   A20        2.09908  -0.00019   0.00050  -0.00273  -0.00216   2.09692
   A21        2.09178   0.00069  -0.00123   0.00792   0.00669   2.09847
   A22        2.09223  -0.00050   0.00074  -0.00525  -0.00451   2.08772
   A23        2.09370  -0.00001  -0.00050   0.00149   0.00097   2.09467
   A24        2.09004  -0.00028   0.00168  -0.00644  -0.00475   2.08529
   A25        2.09939   0.00030  -0.00117   0.00492   0.00377   2.10316
   A26        2.12511   0.00005  -0.00163   0.00389   0.00221   2.12733
   A27        2.06263  -0.00002   0.00407  -0.01133  -0.00714   2.05548
   A28        2.09488  -0.00002  -0.00236   0.00649   0.00426   2.09914
   A29        3.22328  -0.00866  -0.03047  -0.25150  -0.28197   2.94132
   A30        3.18138  -0.00043   0.00467  -0.02326  -0.01859   3.16279
   A31        3.20224  -0.00684  -0.02537  -0.19117  -0.21654   2.98570
   A32        3.17039  -0.00086  -0.00270  -0.01433  -0.01703   3.15336
    D1       -2.84624  -0.00014  -0.03300   0.09677   0.06367  -2.78258
    D2        0.25203   0.00094   0.00007   0.03172   0.03168   0.28371
    D3        0.36720  -0.00040  -0.03265   0.08198   0.04914   0.41635
    D4       -2.81771   0.00068   0.00042   0.01693   0.01716  -2.80055
    D5        3.07902  -0.00068   0.01697  -0.06605  -0.04927   3.02975
    D6       -0.06674  -0.00079   0.00966  -0.05108  -0.04144  -0.10818
    D7       -0.13287  -0.00032   0.01653  -0.05109  -0.03474  -0.16761
    D8        3.00457  -0.00043   0.00922  -0.03612  -0.02691   2.97765
    D9       -0.25296   0.00045   0.01871  -0.03583  -0.01706  -0.27002
   D10        2.93155  -0.00054  -0.01342   0.02959   0.01590   2.94745
   D11       -0.08776  -0.00028   0.01024  -0.04028  -0.02999  -0.11775
   D12        2.99077   0.00054   0.02959  -0.07144  -0.04144   2.94933
   D13        0.29739  -0.00005  -0.02299   0.06273   0.03980   0.33719
   D14       -2.98527   0.00057   0.00299   0.01031   0.01339  -2.97188
   D15       -2.78429  -0.00080  -0.04153   0.09116   0.04985  -2.73444
   D16        0.21624  -0.00018  -0.01555   0.03874   0.02343   0.23967
   D17       -0.17061   0.00022   0.00751  -0.01025  -0.00289  -0.17350
   D18        2.97496   0.00033   0.01442  -0.02454  -0.01038   2.96458
   D19        3.10379  -0.00028  -0.01682   0.03772   0.02110   3.12489
[...]
 ! D17   D(6,7,8,3)             -9.7642         -DE/DX =    0.0                 !
 ! D18   D(6,7,8,9)            171.2394         -DE/DX =    0.0                 !
 ! D19   D(12,7,8,3)           176.7089         -DE/DX =    0.0                 !
 ! D20   D(12,7,8,9)            -2.2875         -DE/DX =    0.0                 !
 ! D21   D(6,7,12,11)         -171.1313         -DE/DX =    0.0                 !
 ! D22   D(6,7,12,19)            7.2772         -DE/DX =    0.0                 !
 ! D23   D(8,7,12,11)            1.9628         -DE/DX =    0.0                 !
 ! D24   D(8,7,12,19)         -179.6287         -DE/DX =    0.0                 !
 ! D25   D(3,8,9,10)          -177.3477         -DE/DX =    0.0                 !
 ! D26   D(3,8,9,16)             1.5863         -DE/DX =    0.0                 !
 ! D27   D(7,8,9,10)             1.6005         -DE/DX =    0.0                 !
 ! D28   D(7,8,9,16)          -179.4656         -DE/DX =    0.0                 !
 ! D29   D(8,9,10,11)           -0.4766         -DE/DX =    0.0                 !
 ! D30   D(8,9,10,17)          179.4345         -DE/DX =    0.0                 !
 ! D31   D(16,9,10,11)        -179.3902         -DE/DX =    0.0                 !
 ! D32   D(16,9,10,17)           0.5208         -DE/DX =    0.0                 !
 ! D33   D(9,10,11,12)           0.0758         -DE/DX =    0.0                 !
 ! D34   D(9,10,11,18)        -179.2047         -DE/DX =    0.0                 !
 ! D35   D(17,10,11,12)       -179.8356         -DE/DX =    0.0                 !
 ! D36   D(17,10,11,18)          0.8838         -DE/DX =    0.0                 !
 ! D37   D(10,11,12,7)          -0.8534         -DE/DX =    0.0                 !
 ! D38   D(10,11,12,19)       -179.2341         -DE/DX =    0.0                 !
 ! D39   D(18,11,12,7)         178.4213         -DE/DX =    0.0                 !
 ! D40   D(18,11,12,19)          0.0407         -DE/DX =    0.0                 !
 --------------------------------------------------------------------------------
 GradGradGradGradGradGradGradGradGradGradGradGradGradGradGradGradGradGrad

                          Input orientation:                          
 ---------------------------------------------------------------------
 Center     Atomic      Atomic             Coordinates (Angstroms)
 Number     Number       Type             X           Y           Z
 ---------------------------------------------------------------------
      1          7           0        2.340668    1.256606   -3.248899
      2          6           0        3.450999    1.083049   -2.820814
      3          6           0        4.796296    0.899448   -2.311453
      4          6           0        5.967637    1.157624   -3.108505
      5          6           0        7.261215    0.627075   -2.789153
      6          6           0        7.388016    0.107598   -1.503013
      7          6           0        6.352298    0.207113   -0.485577
      8          6           0        5.000018    0.506460   -0.927019
      9          6           0        3.928126    0.422589    0.026962
     10          6           0        4.170714    0.095388    1.356795
     11          6           0        5.499539   -0.175349    1.800046
     12          6           0        6.558847   -0.110516    0.898932
     13          7           0        5.744445    2.675631   -5.297585
     14          6           0        5.826430    2.000974   -4.307992
     15          1           0        8.290138   -0.455679   -1.208580
     16          1           0        2.906822    0.641028   -0.313432
     17          1           0        3.339114    0.045619    2.071804
     18          1           0        5.677578   -0.445421    2.849135
     19          1           0        7.581538   -0.330936    1.235248
 ---------------------------------------------------------------------
                    Distance matrix (angstroms):
                    1          2          3          4          5
     1  N    0.000000
     2  C    1.202587   0.000000
     3  C    2.652636   1.450167   0.000000
     4  C    3.631035   2.534126   1.440134   0.000000
     5  C    4.981913   3.837533   2.525511   1.434159   0.000000
     6  C    5.462972   4.264764   2.828005   2.386972   1.392871
     7  C    4.983028   3.825982   2.496857   2.816236   2.511764
     8  C    3.609154   2.513638   1.453478   2.473698   2.931740
     9  C    3.734552   2.962042   2.539547   3.811959   4.368271
    10  C    5.090179   4.352687   3.807087   4.929116   5.198343
    11  C    6.125424   5.208881   4.307455   5.107818   4.980777
    12  C    6.071785   4.991977   3.799104   4.244674   3.826138
    13  N    4.218584   3.732372   3.601499   2.673244   3.576228
    14  C    3.718374   2.949060   2.502140   1.473075   2.500615
    15  H    6.518514   5.327687   3.906358   3.406828   2.174684
    16  H    3.052284   2.603551   2.762062   4.177067   5.009004
    17  H    5.547366   5.002649   4.697377   5.914498   6.272947
    18  H    7.156668   6.280303   5.405276   6.176355   5.953860
    19  H    7.077753   5.959224   4.674452   4.867101   4.149240
                    6          7          8          9         10
     6  C    0.000000
     7  C    1.455263   0.000000
     8  C    2.488653   1.453665   0.000000
     9  C    3.796166   2.487114   1.437382   0.000000
    10  C    4.304612   2.857644   2.464251   1.390814   0.000000
    11  C    3.815312   2.469322   2.855043   2.443501   1.426726
    12  C    2.550379   1.435415   2.478852   2.822273   2.440331
    13  N    4.867741   5.442287   4.935719   6.060199   7.308561
    14  C    3.727108   4.255036   3.787810   4.988656   6.201812
    15  H    1.103538   2.171923   3.439459   4.617907   4.884105
    16  H    4.666985   3.476956   2.185421   1.098474   2.164440
    17  H    5.401552   3.955447   3.458889   2.161115   1.097849
    18  H    4.708781   3.464297   3.952785   3.432009   2.188651
    19  H    2.779899   2.182147   3.469997   3.921118   3.439512
                   11         12         13         14         15
    11  C    0.000000
    12  C    1.392244   0.000000
    13  N    7.652741   6.842711   0.000000
    14  C    6.492409   5.666294   1.200491   0.000000
    15  H    4.113133   2.749202   5.745052   4.659545   0.000000
    16  H    3.443173   3.920705   6.085516   5.131284   5.566340
    17  H    2.188634   3.430261   8.185993   7.121233   5.960273
    18  H    1.097827   2.166123   8.724362   7.565149   4.826036
    19  H    2.162850   1.098903   7.422417   6.264641   2.547542
                   16         17         18         19
    16  H    0.000000
    17  H    2.496144   0.000000
    18  H    4.342728   2.512724   0.000000
    19  H    5.019570   4.340481   2.498559   0.000000
 Stoichiometry    C12H5N2(1-)
 Framework group  C1[X(C12H5N2)]
 Deg. of freedom    51
 Full point group                 C1      NOp   1
 Largest Abelian subgroup         C1      NOp   1
 Largest concise Abelian subgroup C1      NOp   1
                         Standard orientation:                         
 ---------------------------------------------------------------------
 Center     Atomic      Atomic             Coordinates (Angstroms)
 Number     Number       Type             X           Y           Z
 ---------------------------------------------------------------------
      1          7           0        1.908332    2.849266   -0.359919
      2          6           0        1.398535    1.763188   -0.277728
      3          6           0        0.798536    0.448578   -0.156133
      4          6           0        1.583784   -0.755221   -0.065383
      5          6           0        1.049118   -2.057942   -0.337160
      6          6           0       -0.340914   -2.129089   -0.390434
      7          6           0       -1.220195   -1.017623   -0.059831
      8          6           0       -0.645192    0.317456   -0.050984
      9          6           0       -1.524370    1.446684    0.083024
     10          6           0       -2.896427    1.277817    0.235694
     11          6           0       -3.462550   -0.031680    0.252118
     12          6           0       -2.638955   -1.145961    0.116422
     13          7           0        4.161658   -0.579778    0.620195
     14          6           0        3.001002   -0.639422    0.319367
     15          1           0       -0.845852   -3.046711   -0.738005
     16          1           0       -1.086065    2.453921    0.080223
     17          1           0       -3.549759    2.153208    0.345779
     18          1           0       -4.548352   -0.152521    0.360077
     19          1           0       -3.074143   -2.155021    0.116150
 ---------------------------------------------------------------------
 Rotational constants (GHZ):      1.2977153      0.5518839      0.3965865

 **********************************************************************

            Population analysis using the SCF density.

 **********************************************************************

 Orbital symmetries:
       Occupied  (A) (A) (A) (A) (A) (A) (A) (A) (A) (A) (A) (A)
                 (A) (A) (A) (A) (A) (A) (A) (A) (A) (A) (A) (A)
                 (A) (A) (A) (A) (A) (A) (A) (A) (A) (A) (A) (A)
                 (A) (A) (A) (A) (A) (A) (A) (A) (A) (A)
       Virtual   (A) (A) (A) (A) (A) (A) (A) (A) (A) (A) (A) (A)
                 (A) (A) (A) (A) (A) (A) (A) (A) (A) (A) (A) (A)
                 (A) (A) (A) (A) (A)
 The electronic state is 1-A.
 Alpha  occ. eigenvalues --  -13.95681 -13.95178  -9.87198  -9.86936  -9.86900
 Alpha  occ. eigenvalues --   -9.86773  -9.86558  -9.86546  -9.86495  -9.86140
 Alpha  occ. eigenvalues --   -9.86128  -9.85752  -9.81140  -9.71674  -0.69874
 Alpha  occ. eigenvalues --   -0.68908  -0.66954  -0.61671  -0.57635  -0.54461
 Alpha  occ. eigenvalues --   -0.51757  -0.44659  -0.41854  -0.40898  -0.34099
 Alpha  occ. eigenvalues --   -0.33212  -0.29116  -0.27807  -0.24721  -0.23885
 Alpha  occ. eigenvalues --   -0.22461  -0.19984  -0.18512  -0.16278  -0.15675
 Alpha  occ. eigenvalues --   -0.14817  -0.13146  -0.12738  -0.11899  -0.10950
 Alpha  occ. eigenvalues --   -0.09942  -0.08687  -0.07202  -0.01854   0.00625
 Alpha  occ. eigenvalues --    0.08076
 Alpha virt. eigenvalues --    0.17050   0.22632   0.23775   0.28214   0.29631
 Alpha virt. eigenvalues --    0.31051   0.34772   0.37354   0.43510   0.47446
 Alpha virt. eigenvalues --    0.47887   0.50577   0.52289   0.56584   0.57376
 Alpha virt. eigenvalues --    0.58772   0.60048   0.62769   0.67618   0.70606
 Alpha virt. eigenvalues --    0.71176   0.75462   0.77081   0.82566   0.86058
 Alpha virt. eigenvalues --    0.92140   0.94143   1.07320   1.11332
          Condensed to atoms (all electrons):
               1          2          3          4          5          6
     1  N    6.614261   0.653077  -0.011183  -0.000095  -0.000001   0.000000
     2  C    0.653077   4.942395   0.427446  -0.026039   0.000674   0.000048
     3  C   -0.011183   0.427446   4.832017   0.462644  -0.021281  -0.010868
     4  C   -0.000095  -0.026039   0.462644   4.832575   0.447775  -0.031285
     5  C   -0.000001   0.000674  -0.021281   0.447775   5.328902   0.501949
     6  C    0.000000   0.000048  -0.010868  -0.031285   0.501949   4.903496
     7  C   -0.000001   0.000717  -0.028113  -0.012151  -0.021911   0.444030
     8  C   -0.000020  -0.028948   0.460052  -0.029897  -0.008003  -0.029716
     9  C   -0.000130  -0.004360  -0.026970   0.000624   0.000034   0.000766
    10  C    0.000000   0.000018   0.000733  -0.000006   0.000000   0.000030
    11  C    0.000000   0.000000   0.000030  -0.000001  -0.000008   0.000693
    12  C    0.000000  -0.000005   0.000791   0.000060   0.000691  -0.025650
    13  N   -0.000007  -0.000011   0.000035  -0.010597  -0.000007  -0.000002
    14  C    0.000005  -0.002248  -0.035511   0.407871  -0.033884   0.001277
    15  H    0.000000   0.000001   0.000041   0.002039  -0.031769   0.381197
    16  H   -0.000085   0.001610  -0.003512   0.000021  -0.000001  -0.000017
    17  H    0.000000   0.000000  -0.000015   0.000000   0.000000   0.000000
    18  H    0.000000   0.000000   0.000001   0.000000   0.000000  -0.000015
    19  H    0.000000   0.000000  -0.000016   0.000001   0.000016  -0.003109
               7          8          9         10         11         12
     1  N   -0.000001  -0.000020  -0.000130   0.000000   0.000000   0.000000
     2  C    0.000717  -0.028948  -0.004360   0.000018   0.000000  -0.000005
     3  C   -0.028113   0.460052  -0.026970   0.000733   0.000030   0.000791
     4  C   -0.012151  -0.029897   0.000624  -0.000006  -0.000001   0.000060
     5  C   -0.021911  -0.008003   0.000034   0.000000  -0.000008   0.000691
     6  C    0.444030  -0.029716   0.000766   0.000030   0.000693  -0.025650
     7  C    4.823254   0.460106  -0.025551  -0.009384  -0.027008   0.471344
     8  C    0.460106   4.801644   0.471292  -0.027459  -0.009351  -0.027808
     9  C   -0.025551   0.471292   4.833980   0.523155  -0.029423  -0.010190
    10  C   -0.009384  -0.027459   0.523155   4.828495   0.478301  -0.029576
    11  C   -0.027008  -0.009351  -0.029423   0.478301   4.834778   0.520475
    12  C    0.471344  -0.027808  -0.010190  -0.029576   0.520475   4.836901
    13  N    0.000000  -0.000001   0.000000   0.000000   0.000000   0.000000
    14  C    0.000003   0.000719  -0.000005   0.000000   0.000000   0.000000
    15  H   -0.032577   0.001171  -0.000019  -0.000001   0.000007  -0.003211
    16  H    0.001224  -0.025199   0.386174  -0.025528   0.001386   0.000026
    17  H    0.000031   0.001359  -0.025873   0.387386  -0.025356   0.001351
    18  H    0.001334   0.000027   0.001347  -0.025430   0.387061  -0.025614
    19  H   -0.025737   0.001278   0.000030   0.001415  -0.026274   0.385696
              13         14         15         16         17         18
     1  N   -0.000007   0.000005   0.000000  -0.000085   0.000000   0.000000
     2  C   -0.000011  -0.002248   0.000001   0.001610   0.000000   0.000000
     3  C    0.000035  -0.035511   0.000041  -0.003512  -0.000015   0.000001
     4  C   -0.010597   0.407871   0.002039   0.000021   0.000000   0.000000
     5  C   -0.000007  -0.033884  -0.031769  -0.000001   0.000000   0.000000
     6  C   -0.000002   0.001277   0.381197  -0.000017   0.000000  -0.000015
     7  C    0.000000   0.000003  -0.032577   0.001224   0.000031   0.001334
     8  C   -0.000001   0.000719   0.001171  -0.025199   0.001359   0.000027
     9  C    0.000000  -0.000005  -0.000019   0.386174  -0.025873   0.001347
    10  C    0.000000   0.000000  -0.000001  -0.025528   0.387386  -0.025430
    11  C    0.000000   0.000000   0.000007   0.001386  -0.025356   0.387061
    12  C    0.000000   0.000000  -0.003211   0.000026   0.001351  -0.025614
    13  N    6.608879   0.658972   0.000000   0.000000   0.000000   0.000000
    14  C    0.658972   4.956889  -0.000010  -0.000001   0.000000   0.000000
    15  H    0.000000  -0.000010   0.655133   0.000000   0.000000   0.000000
    16  H    0.000000  -0.000001   0.000000   0.601814  -0.003792  -0.000033
    17  H    0.000000   0.000000   0.000000  -0.003792   0.617412  -0.003300
    18  H    0.000000   0.000000   0.000000  -0.000033  -0.003300   0.619997
    19  H    0.000000   0.000000   0.001073   0.000002  -0.000034  -0.003744
              19
     1  N    0.000000
     2  C    0.000000
     3  C   -0.000016
     4  C    0.000001
     5  C    0.000016
     6  C   -0.003109
     7  C   -0.025737
     8  C    0.001278
     9  C    0.000030
    10  C    0.001415
    11  C   -0.026274
    12  C    0.385696
    13  N    0.000000
    14  C    0.000000
    15  H    0.001073
    16  H    0.000002
    17  H   -0.000034
    18  H   -0.003744
    19  H    0.615562
 Mulliken charges:
               1
     1  N   -0.255821
     2  C    0.035624
     3  C   -0.046321
     4  C   -0.043540
     5  C   -0.163177
     6  C   -0.132825
     7  C   -0.019609
     8  C   -0.011248
     9  C   -0.094881
    10  C   -0.102148
    11  C   -0.105310
    12  C   -0.095282
    13  N   -0.257261
    14  C    0.045922
    15  H    0.026923
    16  H    0.065910
    17  H    0.050831
    18  H    0.048370
    19  H    0.053843
 Sum of Mulliken charges =  -1.00000
 Mulliken charges with hydrogens summed into heavy atoms:
               1
     1  N   -0.255821
     2  C    0.035624
     3  C   -0.046321
     4  C   -0.043540
     5  C   -0.163177
     6  C   -0.105902
     7  C   -0.019609
     8  C   -0.011248
     9  C   -0.028971
    10  C   -0.051317
    11  C   -0.056940
    12  C   -0.041439
    13  N   -0.257261
    14  C    0.045922
 Electronic spatial extent (au):  <R**2>=           2636.6186
 Charge=             -1.0000 electrons
 Dipole moment (field-independent basis, Debye):
    X=             -6.9357    Y=              0.5820    Z=              0.1226  Tot=              6.9611
 Quadrupole moment (field-independent basis, Debye-Ang):
   XX=           -109.7065   YY=            -94.6243   ZZ=            -75.5369
   XY=             -0.5287   XZ=             -2.2959   YZ=              0.4916
 Traceless Quadrupole moment (field-independent basis, Debye-Ang):
   XX=            -16.4172   YY=             -1.3351   ZZ=             17.7523
   XY=             -0.5287   XZ=             -2.2959   YZ=              0.4916
 Octapole moment (field-independent basis, Debye-Ang**2):
  XXX=           -109.5132  YYY=             -9.6931  ZZZ=              0.4003  XYY=            -38.8542
  XXY=              3.1208  XXZ=            -15.5199  XZZ=              3.3461  YZZ=              2.5514
  YYZ=              9.2124  XYZ=              3.1275
 Hexadecapole moment (field-independent basis, Debye-Ang**3):
 XXXX=          -2831.5373 YYYY=          -1176.2685 ZZZZ=            -97.1979 XXXY=             46.5640
 XXXZ=            -82.4730 YYYX=            -50.1446 YYYZ=              6.3814 ZZZX=              3.9649
 ZZZY=             -4.0565 XXYY=           -613.4765 XXZZ=           -417.7538 YYZZ=           -188.2224
 XXYZ=             14.6087 YYXZ=             15.8970 ZZXY=              4.2420
 N-N= 7.038814274813D+02 E-N=-2.730097663271D+03  KE= 5.546220060933D+02
 1\1\GINC-N057\FOpt\RB3LYP\STO-3G\C12H5N2(1-)\R2532\15-Jun-2021\0\\#N B
 3LYP/STO-3G OPT\\1Naph\\-1,1\N,2.3406675662,1.2566055815,-3.2488994626
 \C,3.4509990735,1.0830493947,-2.8208144521\C,4.7962964535,0.8994477404
 ,-2.3114533949\C,5.9676370942,1.1576244184,-3.1085045263\C,7.261214667
 1,0.6270751498,-2.7891527834\C,7.3880160867,0.1075980861,-1.5030128618
 \C,6.3522983254,0.2071129583,-0.4855772576\C,5.0000180266,0.5064602785
 ,-0.9270192398\C,3.9281264432,0.4225894166,0.0269622424\C,4.1707137393
 ,0.095388045,1.3567951312\C,5.4995393455,-0.1753494153,1.8000464373\C,
 6.5588474116,-0.1105163288,0.8989322717\N,5.7444449774,2.6756309035,-5
 .2975853643\C,5.8264303036,2.0009741029,-4.3079922367\H,8.2901381586,-
 0.4556794649,-1.2085799379\H,2.9068224489,0.6410276839,-0.3134316414\H
 ,3.3391137973,0.0456189316,2.0718036805\H,5.6775783647,-0.4454214592,2
 .8491351385\H,7.5815377166,-0.3309360231,1.2352482571\\Version=ES64L-G
 09RevD.01\State=1-A\HF=-562.5223023\RMSD=4.758e-09\RMSF=1.057e-05\Dipo
 le=-0.1033514,-0.8488072,2.6018083\Quadrupole=-0.9771467,9.248256,-8.2
 711094,1.2291697,-0.3324531,9.285173\PG=C01 [X(C12H5N2)]\\@


 MATERIAL COPIED FROM ONE SCHOLARLY BOOK WITHOUT CREDIT COMPRISES PLAGIARISM.
 MATERIAL COPIED FROM TWO SCHOLARLY BOOKS COMPRISES AN ESSAY.
 MATERIAL COPIED FROM THREE SCHOLARLY BOOKS COMPRISES A DISSERTATION.
 MATERIAL COPIED FROM FOUR SCHOLARLY BOOKS COMPRISES A FIFTH SCHOLARLY BOOK.

                               -- C&EN, 25 FEB 1980
 Job cpu time:       0 days  0 hours  4 minutes 33.0 seconds.
 File lengths (MBytes):  RWF=      5 Int=      0 D2E=      0 Chk=      2 Scr=      1
 Normal termination of Gaussian 09 at Tue Jun 15 11:18:18 2021.
