 Entering Gaussian System, Link 0=/usr/local/apps//g09/g09
 Input=27.com
 Output=27.out
 Initial command:
 /usr/local/apps//g09/l1.exe "/tmp/bnp.472664.sequoia/Gau-6387.inp" -scrdir="/tmp/bnp.472664.sequoia/"
 Entering Link 1 = /usr/local/apps//g09/l1.exe PID=      6388.
  
 Copyright (c) 1988,1990,1992,1993,1995,1998,2003,2009,2013,
            Gaussian, Inc.  All Rights Reserved.
  
 This is part of the Gaussian(R) 09 program.  It is based on
 the Gaussian(R) 03 system (copyright 2003, Gaussian, Inc.),
 the Gaussian(R) 98 system (copyright 1998, Gaussian, Inc.),
 the Gaussian(R) 94 system (copyright 1995, Gaussian, Inc.),
 the Gaussian 92(TM) system (copyright 1992, Gaussian, Inc.),
 the Gaussian 90(TM) system (copyright 1990, Gaussian, Inc.),
 the Gaussian 88(TM) system (copyright 1988, Gaussian, Inc.),
 the Gaussian 86(TM) system (copyright 1986, Carnegie Mellon
 University), and the Gaussian 82(TM) system (copyright 1983,
 Carnegie Mellon University). Gaussian is a federally registered
 trademark of Gaussian, Inc.
  
 This software contains proprietary and confidential information,
 including trade secrets, belonging to Gaussian, Inc.
  
 This software is provided under written license and may be
 used, copied, transmitted, or stored only in accord with that
 written license.
  
 The following legend is applicable only to US Government
 contracts under FAR:
  
                    RESTRICTED RIGHTS LEGEND
  
 Use, reproduction and disclosure by the US Government is
 subject to restrictions as set forth in subparagraphs (a)
 and (c) of the Commercial Computer Software - Restricted
 Rights clause in FAR 52.227-19.
  
 Gaussian, Inc.
 340 Quinnipiac St., Bldg. 40, Wallingford CT 06492
  
  
 ---------------------------------------------------------------
 Warning -- This program may not be used in any manner that
 competes with the business of Gaussian, Inc. or will provide
 assistance to any competitor of Gaussian, Inc.  The licensee
 of this program is prohibited from giving any competitor of
 Gaussian, Inc. access to this program.  By using this program,
 the user acknowledges that Gaussian, Inc. is engaged in the
 business of creating and licensing software in the field of
 computational chemistry and represents and warrants to the
 licensee that it is not a competitor of Gaussian, Inc. and that
 it will not use this program in any manner prohibited above.
 ---------------------------------------------------------------
  

 Cite this work as:
 Gaussian 09, Revision D.01,
 M. J. Frisch, G. W. Trucks, H. B. Schlegel, G. E. Scuseria, 
 M. A. Robb, J. R. Cheeseman, G. Scalmani, V. Barone, B. Mennucci, 
 G. A. Petersson, H. Nakatsuji, M. Caricato, X. Li, H. P. Hratchian, 
 A. F. Izmaylov, J. Bloino, G. Zheng, J. L. Sonnenberg, M. Hada, 
 M. Ehara, K. Toyota, R. Fukuda, J. Hasegawa, M. Ishida, T. Nakajima, 
 Y. Honda, O. Kitao, H. Nakai, T. Vreven, J. A. Montgomery, Jr., 
 J. E. Peralta, F. Ogliaro, M. Bearpark, J. J. Heyd, E. Brothers, 
 K. N. Kudin, V. N. Staroverov, T. Keith, R. Kobayashi, J. Normand, 
 K. Raghavachari, A. Rendell, J. C. Burant, S. S. Iyengar, J. Tomasi, 
 M. Cossi, N. Rega, J. M. Millam, M. Klene, J. E. Knox, J. B. Cross, 
 V. Bakken, C. Adamo, J. Jaramillo, R. Gomperts, R. E. Stratmann, 
 O. Yazyev, A. J. Austin, R. Cammi, C. Pomelli, J. W. Ochterski, 
 R. L. Martin, K. Morokuma, V. G. Zakrzewski, G. A. Voth, 
 P. Salvador, J. J. Dannenberg, S. Dapprich, A. D. Daniels, 
 O. Farkas, J. B. Foresman, J. V. Ortiz, J. Cioslowski, 
 and D. J. Fox, Gaussian, Inc., Wallingford CT, 2013.
 
 ******************************************
 Gaussian 09:  ES64L-G09RevD.01 24-Apr-2013
                15-Jun-2021 
 ******************************************
 -------------------
 #N B3LYP/STO-3G OPT
 -------------------
 1/14=-1,18=20,19=15,26=3,38=1/1,3;
 2/9=110,12=2,17=6,18=5,40=1/2;
 3/6=3,11=2,16=1,25=1,30=1,71=1,74=-5/1,2,3;
 4//1;
 5/5=2,38=5/2;
 6/7=2,8=2,9=2,10=2,28=1/1;
 7//1,2,3,16;
 1/14=-1,18=20,19=15,26=3/3(2);
 2/9=110/2;
 99//99;
 2/9=110/2;
 3/6=3,11=2,16=1,25=1,30=1,71=1,74=-5/1,2,3;
 4/5=5,16=3,69=1/1;
 5/5=2,38=5/2;
 7//1,2,3,16;
 1/14=-1,18=20,19=15,26=3/3(-5);
 2/9=110/2;
 6/7=2,8=2,9=2,10=2,19=2,28=1/1;
 99/9=1/99;
 -----
 1Naph
 -----
 Symbolic Z-matrix:
 Charge = -1 Multiplicity = 1
 N                     1.19257  -0.05745   0.0051 
 C                     2.35283  -0.08564   0.00491 
 C                     3.78931  -0.07856   0.00506 
 C                     4.44164   1.16435   0.00501 
 C                     5.83185   1.22982   0.00474 
 C                     6.58015   0.05528   0.00496 
 C                     5.95233  -1.19823   0.00521 
 C                     4.53807  -1.2786    0.00477 
 C                     3.94553  -2.55817   0.00343 
 C                     4.71837  -3.72079   0.00321 
 C                     6.10952  -3.62569   0.00427 
 C                     6.72044  -2.37221   0.00542 
 N                     3.63092  -6.07144   0.00261 
 C                     4.08979  -5.00676   0.00249 
 H                     3.86764   2.09026   0.00479 
 H                     6.33515   2.19403   0.00469 
 H                     7.66661   0.12704   0.00443 
 H                     6.72718  -4.52231   0.00441 
 H                     7.80828  -2.31962   0.00555 
 

 GradGradGradGradGradGradGradGradGradGradGradGradGradGradGradGradGradGrad
 Berny optimization.
 Initialization pass.
                           ----------------------------
                           !    Initial Parameters    !
                           ! (Angstroms and Degrees)  !
 --------------------------                            --------------------------
 ! Name  Definition              Value          Derivative Info.                !
 --------------------------------------------------------------------------------
 ! R1    R(1,2)                  1.1606         estimate D2E/DX2                !
 ! R2    R(2,3)                  1.4365         estimate D2E/DX2                !
 ! R3    R(3,4)                  1.4037         estimate D2E/DX2                !
 ! R4    R(3,8)                  1.4145         estimate D2E/DX2                !
 ! R5    R(4,5)                  1.3918         estimate D2E/DX2                !
 ! R6    R(4,15)                 1.0894         estimate D2E/DX2                !
 ! R7    R(5,6)                  1.3927         estimate D2E/DX2                !
 ! R8    R(5,16)                 1.0877         estimate D2E/DX2                !
 ! R9    R(6,7)                  1.4019         estimate D2E/DX2                !
 ! R10   R(6,17)                 1.0888         estimate D2E/DX2                !
 ! R11   R(7,8)                  1.4165         estimate D2E/DX2                !
 ! R12   R(7,12)                 1.4029         estimate D2E/DX2                !
 ! R13   R(8,9)                  1.4101         estimate D2E/DX2                !
 ! R14   R(9,10)                 1.3961         estimate D2E/DX2                !
 ! R15   R(10,11)                1.3944         estimate D2E/DX2                !
 ! R16   R(10,14)                1.4314         estimate D2E/DX2                !
 ! R17   R(11,12)                1.3944         estimate D2E/DX2                !
 ! R18   R(11,18)                1.0888         estimate D2E/DX2                !
 ! R19   R(12,19)                1.0891         estimate D2E/DX2                !
 ! R20   R(13,14)                1.1594         estimate D2E/DX2                !
 ! A1    A(2,3,4)              117.9747         estimate D2E/DX2                !
 ! A2    A(2,3,8)              121.6795         estimate D2E/DX2                !
 ! A3    A(4,3,8)              120.3457         estimate D2E/DX2                !
 ! A4    A(3,4,5)              120.3886         estimate D2E/DX2                !
 ! A5    A(3,4,15)             120.5116         estimate D2E/DX2                !
 ! A6    A(5,4,15)             119.0998         estimate D2E/DX2                !
 ! A7    A(4,5,6)              119.805          estimate D2E/DX2                !
 ! A8    A(4,5,16)             120.26           estimate D2E/DX2                !
 ! A9    A(6,5,16)             119.935          estimate D2E/DX2                !
 ! A10   A(5,6,7)              120.8948         estimate D2E/DX2                !
 ! A11   A(5,6,17)             118.7224         estimate D2E/DX2                !
 ! A12   A(7,6,17)             120.3828         estimate D2E/DX2                !
 ! A13   A(6,7,8)              119.8565         estimate D2E/DX2                !
 ! A14   A(6,7,12)             120.2002         estimate D2E/DX2                !
 ! A15   A(8,7,12)             119.9433         estimate D2E/DX2                !
 ! A16   A(3,8,7)              118.7094         estimate D2E/DX2                !
 ! A17   A(3,8,9)              123.1903         estimate D2E/DX2                !
 ! A18   A(7,8,9)              118.1003         estimate D2E/DX2                !
 ! A19   A(8,9,10)             121.5386         estimate D2E/DX2                !
 ! A20   A(9,10,11)            119.7029         estimate D2E/DX2                !
 ! A21   A(9,10,14)            120.3371         estimate D2E/DX2                !
 ! A22   A(11,10,14)           119.96           estimate D2E/DX2                !
 ! A23   A(10,11,12)           119.8944         estimate D2E/DX2                !
 ! A24   A(10,11,18)           120.6513         estimate D2E/DX2                !
 ! A25   A(12,11,18)           119.4543         estimate D2E/DX2                !
 ! A26   A(7,12,11)            120.8205         estimate D2E/DX2                !
 ! A27   A(7,12,19)            120.4281         estimate D2E/DX2                !
 ! A28   A(11,12,19)           118.7514         estimate D2E/DX2                !
 ! A29   L(1,2,3,13,-1)        181.6742         estimate D2E/DX2                !
 ! A30   L(10,14,13,1,-1)      182.7336         estimate D2E/DX2                !
 ! A31   L(1,2,3,13,-2)        180.0151         estimate D2E/DX2                !
 ! A32   L(10,14,13,1,-2)      180.0438         estimate D2E/DX2                !
 ! D1    D(2,3,4,5)           -179.9805         estimate D2E/DX2                !
 ! D2    D(2,3,4,15)            -0.0044         estimate D2E/DX2                !
 ! D3    D(8,3,4,5)             -0.0031         estimate D2E/DX2                !
 ! D4    D(8,3,4,15)           179.973          estimate D2E/DX2                !
 ! D5    D(2,3,8,7)           -179.9876         estimate D2E/DX2                !
 ! D6    D(2,3,8,9)              0.0431         estimate D2E/DX2                !
 ! D7    D(4,3,8,7)              0.036          estimate D2E/DX2                !
 ! D8    D(4,3,8,9)           -179.9334         estimate D2E/DX2                !
 ! D9    D(3,4,5,6)             -0.021          estimate D2E/DX2                !
 ! D10   D(3,4,5,16)           179.9993         estimate D2E/DX2                !
 ! D11   D(15,4,5,6)          -179.9974         estimate D2E/DX2                !
 ! D12   D(15,4,5,16)            0.0229         estimate D2E/DX2                !
 ! D13   D(4,5,6,7)              0.0115         estimate D2E/DX2                !
 ! D14   D(4,5,6,17)           179.9812         estimate D2E/DX2                !
 ! D15   D(16,5,6,7)           179.9913         estimate D2E/DX2                !
 ! D16   D(16,5,6,17)           -0.0389         estimate D2E/DX2                !
 ! D17   D(5,6,7,8)              0.022          estimate D2E/DX2                !
 ! D18   D(5,6,7,12)           179.9995         estimate D2E/DX2                !
 ! D19   D(17,6,7,8)          -179.9473         estimate D2E/DX2                !
 ! D20   D(17,6,7,12)            0.0303         estimate D2E/DX2                !
 ! D21   D(6,7,8,3)             -0.0451         estimate D2E/DX2                !
 ! D22   D(6,7,8,9)            179.9258         estimate D2E/DX2                !
 ! D23   D(12,7,8,3)           179.9772         estimate D2E/DX2                !
 ! D24   D(12,7,8,9)            -0.0519         estimate D2E/DX2                !
 ! D25   D(6,7,12,11)         -179.933          estimate D2E/DX2                !
 ! D26   D(6,7,12,19)            0.0097         estimate D2E/DX2                !
 ! D27   D(8,7,12,11)            0.0445         estimate D2E/DX2                !
 ! D28   D(8,7,12,19)          179.9873         estimate D2E/DX2                !
 ! D29   D(3,8,9,10)          -179.9988         estimate D2E/DX2                !
 ! D30   D(7,8,9,10)             0.0317         estimate D2E/DX2                !
 ! D31   D(8,9,10,11)           -0.003          estimate D2E/DX2                !
 ! D32   D(8,9,10,14)          179.9698         estimate D2E/DX2                !
 ! D33   D(9,10,11,12)          -0.0058         estimate D2E/DX2                !
 ! D34   D(9,10,11,18)         179.982          estimate D2E/DX2                !
 ! D35   D(14,10,11,12)       -179.9787         estimate D2E/DX2                !
 ! D36   D(14,10,11,18)          0.0091         estimate D2E/DX2                !
 ! D37   D(10,11,12,7)          -0.0151         estimate D2E/DX2                !
 ! D38   D(10,11,12,19)       -179.9588         estimate D2E/DX2                !
 ! D39   D(18,11,12,7)         179.997          estimate D2E/DX2                !
 ! D40   D(18,11,12,19)          0.0533         estimate D2E/DX2                !
 --------------------------------------------------------------------------------
 Trust Radius=3.00D-01 FncErr=1.00D-07 GrdErr=1.00D-06
 Number of steps in this run=    102 maximum allowed number of steps=    114.
 GradGradGradGradGradGradGradGradGradGradGradGradGradGradGradGradGradGrad

                          Input orientation:                          
 ---------------------------------------------------------------------
 Center     Atomic      Atomic             Coordinates (Angstroms)
 Number     Number       Type             X           Y           Z
 ---------------------------------------------------------------------
      1          7           0        1.192570   -0.057450    0.005100
      2          6           0        2.352830   -0.085640    0.004910
      3          6           0        3.789310   -0.078560    0.005060
      4          6           0        4.441640    1.164350    0.005010
      5          6           0        5.831850    1.229820    0.004740
      6          6           0        6.580150    0.055280    0.004960
      7          6           0        5.952330   -1.198230    0.005210
      8          6           0        4.538070   -1.278600    0.004770
      9          6           0        3.945530   -2.558170    0.003430
     10          6           0        4.718370   -3.720790    0.003210
     11          6           0        6.109520   -3.625690    0.004270
     12          6           0        6.720440   -2.372210    0.005420
     13          7           0        3.630920   -6.071440    0.002610
     14          6           0        4.089790   -5.006760    0.002490
     15          1           0        3.867640    2.090260    0.004790
     16          1           0        6.335150    2.194030    0.004690
     17          1           0        7.666610    0.127040    0.004430
     18          1           0        6.727180   -4.522310    0.004410
     19          1           0        7.808280   -2.319620    0.005550
 ---------------------------------------------------------------------
                    Distance matrix (angstroms):
                    1          2          3          4          5
     1  N    0.000000
     2  C    1.160602   0.000000
     3  C    2.596826   1.436497   0.000000
     4  C    3.471203   2.434256   1.403695   0.000000
     5  C    4.814559   3.719411   2.425660   1.391751   0.000000
     6  C    5.388759   4.229668   2.794047   2.408996   1.392658
     7  C    4.894558   3.767527   2.435635   2.804277   2.431037
     8  C    3.561401   2.489664   1.414474   2.444852   2.822417
     9  C    3.719192   2.941105   2.484527   3.755434   4.231675
    10  C    5.084420   4.337061   3.758856   4.892972   5.074286
    11  C    6.075256   5.161848   4.238574   5.072111   4.863443
    12  C    5.992951   4.929951   3.721875   4.207159   3.710015
    13  N    6.489502   6.120729   5.994973   7.281067   7.625778
    14  C    5.734942   5.218664   4.937353   6.181133   6.475315
    15  H    3.430548   2.651262   2.170234   1.089397   2.144406
    16  H    5.613848   4.588656   3.412619   2.155370   1.087663
    17  H    6.476668   5.318034   3.882747   3.387690   2.140670
    18  H    7.111040   6.230488   5.327100   6.128768   5.821393
    19  H    6.991783   5.895134   4.601573   4.844823   4.062610
                    6          7          8          9         10
     6  C    0.000000
     7  C    1.401943   0.000000
     8  C    2.439124   1.416542   0.000000
     9  C    3.710976   2.424188   1.410108   0.000000
    10  C    4.210099   2.808197   2.448837   1.396054   0.000000
    11  C    3.710934   2.432544   2.824586   2.412976   1.394397
    12  C    2.431540   1.402933   2.441049   2.781135   2.413909
    13  N    6.799607   5.397882   4.877934   3.527328   2.590001
    14  C    5.641467   4.239571   3.755015   2.452836   1.431374
    15  H    3.390996   3.893597   3.434923   4.649083   5.872993
    16  H    2.152737   3.413793   3.910071   5.319181   6.131808
    17  H    1.088827   2.166817   3.429809   4.588768   4.847465
    18  H    4.579951   3.413195   3.913292   3.405205   2.162811
    19  H    2.673659   2.168425   3.431909   3.870110   3.392761
                   11         12         13         14         15
    11  C    0.000000
    12  C    1.394431   0.000000
    13  N    3.482119   4.819693   0.000000
    14  C    2.446767   3.723061   1.159356   0.000000
    15  H    6.139879   5.296424   8.165132   7.100496   0.000000
    16  H    5.824092   4.582466   8.696600   7.542746   2.469691
    17  H    4.062944   2.672356   7.396482   6.256960   4.276261
    18  H    1.088775   2.150111   3.462172   2.681515   7.204377
    19  H    2.142803   1.089110   5.614846   4.587799   5.914025
                   16         17         18         19
    16  H    0.000000
    17  H    2.458706   0.000000
    18  H    6.727772   4.743309   0.000000
    19  H    4.747963   2.450758   2.453696   0.000000
 Stoichiometry    C12H5N2(1-)
 Framework group  C1[X(C12H5N2)]
 Deg. of freedom    51
 Full point group                 C1      NOp   1
 Largest Abelian subgroup         C1      NOp   1
 Largest concise Abelian subgroup C1      NOp   1
                         Standard orientation:                         
 ---------------------------------------------------------------------
 Center     Atomic      Atomic             Coordinates (Angstroms)
 Number     Number       Type             X           Y           Z
 ---------------------------------------------------------------------
      1          7           0       -1.710904    3.371968   -0.000579
      2          6           0       -1.642489    2.213384   -0.000264
      3          6           0       -1.599743    0.777523   -0.000244
      4          6           0       -2.819281    0.082477    0.000302
      5          6           0       -2.836495   -1.309167    0.000755
      6          6           0       -1.636708   -2.016280    0.000225
      7          6           0       -0.405727   -1.345362   -0.000521
      8          6           0       -0.374456    0.070834   -0.000273
      9          6           0        0.883793    0.707397    0.000566
     10          6           0        2.072518   -0.024654    0.000483
     11          6           0        2.025725   -1.418266   -0.000383
     12          6           0        0.794187   -2.072293   -0.001038
     13          7           0        4.384038    1.143669    0.000163
     14          6           0        3.335914    0.648149    0.000696
     15          1           0       -3.764542    0.624019    0.000768
     16          1           0       -3.782668   -1.845606    0.001190
     17          1           0       -1.670743   -3.104575    0.000906
     18          1           0        2.943227   -2.004457   -0.000754
     19          1           0        0.779358   -3.161302   -0.001024
 ---------------------------------------------------------------------
 Rotational constants (GHZ):      1.1264059      0.5659927      0.3767065
 Standard basis: STO-3G (5D, 7F)
 There are    75 symmetry adapted cartesian basis functions of A   symmetry.
 There are    75 symmetry adapted basis functions of A   symmetry.
    75 basis functions,   225 primitive gaussians,    75 cartesian basis functions
    46 alpha electrons       46 beta electrons
       nuclear repulsion energy       706.7544336787 Hartrees.
 NAtoms=   19 NActive=   19 NUniq=   19 SFac= 1.00D+00 NAtFMM=   60 NAOKFM=F Big=F
 Integral buffers will be    131072 words long.
 Raffenetti 2 integral format.
 Two-electron integral symmetry is turned on.
 One-electron integrals computed using PRISM.
 NBasis=    75 RedAO= T EigKep=  1.54D-01  NBF=    75
 NBsUse=    75 1.00D-06 EigRej= -1.00D+00 NBFU=    75
 ExpMin= 1.69D-01 ExpMax= 9.91D+01 ExpMxC= 9.91D+01 IAcc=1 IRadAn=         1 AccDes= 0.00D+00
 Harris functional with IExCor=  402 and IRadAn=       1 diagonalized for initial guess.
 HarFok:  IExCor=  402 AccDes= 0.00D+00 IRadAn=         1 IDoV= 1 UseB2=F ITyADJ=14
 ICtDFT=  3500011 ScaDFX=  1.000000  1.000000  1.000000  1.000000
 FoFCou: FMM=F IPFlag=           0 FMFlag=      100000 FMFlg1=           0
         NFxFlg=           0 DoJE=T BraDBF=F KetDBF=T FulRan=T
         wScrn=  0.000000 ICntrl=     500 IOpCl=  0 I1Cent=   200000004 NGrid=           0
         NMat0=    1 NMatS0=      1 NMatT0=    0 NMatD0=    1 NMtDS0=    0 NMtDT0=    0
 Petite list used in FoFCou.
 Keep R1 ints in memory in canonical form, NReq=4993994.
 Requested convergence on RMS density matrix=1.00D-08 within 128 cycles.
 Requested convergence on MAX density matrix=1.00D-06.
 Requested convergence on             energy=1.00D-06.
 No special actions if energy rises.
 Integral accuracy reduced to 1.0D-05 until final iterations.
 EnCoef did     4 forward-backward iterations
 EnCoef did     3 forward-backward iterations
 Problem detected with inexpensive integrals.
 Switching to full accuracy and repeating last cycle.
 SCF Done:  E(RB3LYP) =  -562.482763188     A.U. after   29 cycles
            NFock= 29  Conv=0.34D-08     -V/T= 2.0128

 **********************************************************************

            Population analysis using the SCF density.

 **********************************************************************

 Orbital symmetries:
       Occupied  (A) (A) (A) (A) (A) (A) (A) (A) (A) (A) (A) (A)
                 (A) (A) (A) (A) (A) (A) (A) (A) (A) (A) (A) (A)
                 (A) (A) (A) (A) (A) (A) (A) (A) (A) (A) (A) (A)
                 (A) (A) (A) (A) (A) (A) (A) (A) (A) (A)
       Virtual   (A) (A) (A) (A) (A) (A) (A) (A) (A) (A) (A) (A)
                 (A) (A) (A) (A) (A) (A) (A) (A) (A) (A) (A) (A)
                 (A) (A) (A) (A) (A)
 The electronic state is 1-A.
 Alpha  occ. eigenvalues --  -13.98193 -13.93498  -9.89971  -9.89000  -9.87737
 Alpha  occ. eigenvalues --   -9.87621  -9.87016  -9.86089  -9.84677  -9.84339
 Alpha  occ. eigenvalues --   -9.84025  -9.82822  -9.82597  -9.65245  -0.73005
 Alpha  occ. eigenvalues --   -0.69668  -0.68270  -0.62543  -0.58808  -0.55658
 Alpha  occ. eigenvalues --   -0.50997  -0.46037  -0.42818  -0.40138  -0.34665
 Alpha  occ. eigenvalues --   -0.32952  -0.31104  -0.28043  -0.25940  -0.22677
 Alpha  occ. eigenvalues --   -0.21465  -0.20986  -0.20203  -0.17533  -0.16498
 Alpha  occ. eigenvalues --   -0.14759  -0.14570  -0.13624  -0.12792  -0.10788
 Alpha  occ. eigenvalues --   -0.10677  -0.09189  -0.06629  -0.03814   0.02322
 Alpha  occ. eigenvalues --    0.15000
 Alpha virt. eigenvalues --    0.17333   0.22006   0.27957   0.28954   0.31627
 Alpha virt. eigenvalues --    0.32488   0.34722   0.40988   0.46263   0.49300
 Alpha virt. eigenvalues --    0.50036   0.52178   0.56033   0.57201   0.60042
 Alpha virt. eigenvalues --    0.61449   0.64351   0.64832   0.70664   0.72831
 Alpha virt. eigenvalues --    0.73801   0.79354   0.82463   0.85973   0.88498
 Alpha virt. eigenvalues --    0.98895   0.99386   1.15426   1.19874
          Condensed to atoms (all electrons):
               1          2          3          4          5          6
     1  N    6.565077   0.688851  -0.010462  -0.000269  -0.000001   0.000000
     2  C    0.688851   4.869051   0.421093  -0.033973   0.001054   0.000012
     3  C   -0.010462   0.421093   4.765160   0.503188  -0.029337  -0.011131
     4  C   -0.000269  -0.033973   0.503188   4.834586   0.494924  -0.031219
     5  C   -0.000001   0.001054  -0.029337   0.494924   4.820831   0.517822
     6  C    0.000000   0.000012  -0.011131  -0.031219   0.517822   4.837844
     7  C   -0.000003   0.001091  -0.037344  -0.010031  -0.029803   0.476490
     8  C   -0.000046  -0.027904   0.470389  -0.029390  -0.010086  -0.026840
     9  C   -0.000334   0.001120  -0.036679   0.000850   0.000034   0.001213
    10  C    0.000001  -0.000002   0.001230  -0.000013   0.000001   0.000066
    11  C    0.000000   0.000001  -0.000022   0.000001  -0.000011   0.000989
    12  C    0.000000  -0.000006   0.000944   0.000045   0.000980  -0.035501
    13  N    0.000000   0.000000   0.000000   0.000000   0.000000   0.000000
    14  C    0.000000  -0.000001  -0.000001   0.000000   0.000000   0.000000
    15  H    0.000059  -0.003892  -0.024965   0.389726  -0.026922   0.001549
    16  H    0.000000  -0.000021   0.001448  -0.026282   0.390803  -0.026168
    17  H    0.000000   0.000001   0.000007   0.001577  -0.028082   0.386768
    18  H    0.000000   0.000000   0.000002   0.000000   0.000000  -0.000016
    19  H    0.000000   0.000000  -0.000023  -0.000001   0.000027  -0.004624
               7          8          9         10         11         12
     1  N   -0.000003  -0.000046  -0.000334   0.000001   0.000000   0.000000
     2  C    0.001091  -0.027904   0.001120  -0.000002   0.000001  -0.000006
     3  C   -0.037344   0.470389  -0.036679   0.001230  -0.000022   0.000944
     4  C   -0.010031  -0.029390   0.000850  -0.000013   0.000001   0.000045
     5  C   -0.029803  -0.010086   0.000034   0.000001  -0.000011   0.000980
     6  C    0.476490  -0.026840   0.001213   0.000066   0.000989  -0.035501
     7  C    4.803485   0.449962  -0.031742  -0.012204  -0.027489   0.486426
     8  C    0.449962   4.825706   0.449911  -0.026722  -0.011401  -0.032202
     9  C   -0.031742   0.449911   5.421156   0.483130  -0.030379  -0.013417
    10  C   -0.012204  -0.026722   0.483130   4.818680   0.469854  -0.033488
    11  C   -0.027489  -0.011401  -0.030379   0.469854   4.848767   0.523747
    12  C    0.486426  -0.032202  -0.013417  -0.033488   0.523747   4.866161
    13  N    0.000000  -0.000003   0.000036  -0.011583  -0.000075  -0.000001
    14  C   -0.000026   0.001311  -0.036618   0.420538  -0.041453   0.000977
    15  H    0.000022   0.001304  -0.000020   0.000000   0.000000   0.000001
    16  H    0.001470   0.000029   0.000001   0.000000   0.000000  -0.000022
    17  H   -0.025227   0.001400  -0.000033  -0.000003   0.000024  -0.004231
    18  H    0.001461   0.000091   0.001658  -0.025209   0.380663  -0.027308
    19  H   -0.026128   0.001319   0.000031   0.001454  -0.027472   0.390787
              13         14         15         16         17         18
     1  N    0.000000   0.000000   0.000059   0.000000   0.000000   0.000000
     2  C    0.000000  -0.000001  -0.003892  -0.000021   0.000001   0.000000
     3  C    0.000000  -0.000001  -0.024965   0.001448   0.000007   0.000002
     4  C    0.000000   0.000000   0.389726  -0.026282   0.001577   0.000000
     5  C    0.000000   0.000000  -0.026922   0.390803  -0.028082   0.000000
     6  C    0.000000   0.000000   0.001549  -0.026168   0.386768  -0.000016
     7  C    0.000000  -0.000026   0.000022   0.001470  -0.025227   0.001461
     8  C   -0.000003   0.001311   0.001304   0.000029   0.001400   0.000091
     9  C    0.000036  -0.036618  -0.000020   0.000001  -0.000033   0.001658
    10  C   -0.011583   0.420538   0.000000   0.000000  -0.000003  -0.025209
    11  C   -0.000075  -0.041453   0.000000   0.000000   0.000024   0.380663
    12  C   -0.000001   0.000977   0.000001  -0.000022  -0.004231  -0.027308
    13  N    6.613016   0.687419   0.000000   0.000000   0.000000   0.000043
    14  C    0.687419   4.913829   0.000000   0.000000   0.000000  -0.002632
    15  H    0.000000   0.000000   0.607009  -0.004010  -0.000042   0.000000
    16  H    0.000000   0.000000  -0.004010   0.612467  -0.004033   0.000000
    17  H    0.000000   0.000000  -0.000042  -0.004033   0.617949  -0.000004
    18  H    0.000043  -0.002632   0.000000   0.000000  -0.000004   0.630626
    19  H    0.000000  -0.000024   0.000000  -0.000002   0.001010  -0.004220
              19
     1  N    0.000000
     2  C    0.000000
     3  C   -0.000023
     4  C   -0.000001
     5  C    0.000027
     6  C   -0.004624
     7  C   -0.026128
     8  C    0.001319
     9  C    0.000031
    10  C    0.001454
    11  C   -0.027472
    12  C    0.390787
    13  N    0.000000
    14  C   -0.000024
    15  H    0.000000
    16  H   -0.000002
    17  H    0.001010
    18  H   -0.004220
    19  H    0.629386
 Mulliken charges:
               1
     1  N   -0.242873
     2  C    0.083524
     3  C   -0.013498
     4  C   -0.093720
     5  C   -0.102234
     6  C   -0.087255
     7  C   -0.020410
     8  C   -0.036826
     9  C   -0.209918
    10  C   -0.085727
    11  C   -0.085743
    12  C   -0.123892
    13  N   -0.288852
    14  C    0.056680
    15  H    0.060181
    16  H    0.054320
    17  H    0.052919
    18  H    0.044847
    19  H    0.038478
 Sum of Mulliken charges =  -1.00000
 Mulliken charges with hydrogens summed into heavy atoms:
               1
     1  N   -0.242873
     2  C    0.083524
     3  C   -0.013498
     4  C   -0.033539
     5  C   -0.047914
     6  C   -0.034337
     7  C   -0.020410
     8  C   -0.036826
     9  C   -0.209918
    10  C   -0.085727
    11  C   -0.040897
    12  C   -0.085415
    13  N   -0.288852
    14  C    0.056680
 Electronic spatial extent (au):  <R**2>=           2722.5059
 Charge=             -1.0000 electrons
 Dipole moment (field-independent basis, Debye):
    X=             -5.5952    Y=             -6.0901    Z=             -0.0008  Tot=              8.2701
 Quadrupole moment (field-independent basis, Debye-Ang):
   XX=           -107.3895   YY=            -95.3919   ZZ=            -73.8039
   XY=             -3.9281   XZ=             -0.0045   YZ=             -0.0025
 Traceless Quadrupole moment (field-independent basis, Debye-Ang):
   XX=            -15.1944   YY=             -3.1968   ZZ=             18.3912
   XY=             -3.9281   XZ=             -0.0045   YZ=             -0.0025
 Octapole moment (field-independent basis, Debye-Ang**2):
  XXX=           -136.8148  YYY=            -64.3728  ZZZ=             -0.0010  XYY=             13.6264
  XXY=            -49.0888  XXZ=              0.0030  XZZ=              2.9092  YZZ=              5.4297
  YYZ=              0.0119  XYZ=             -0.0070
 Hexadecapole moment (field-independent basis, Debye-Ang**3):
 XXXX=          -2889.9433 YYYY=          -1402.6983 ZZZZ=            -57.9721 XXXY=           -186.9715
 XXXZ=             -0.0310 YYYX=             97.5114 YYYZ=              0.0204 ZZZX=              0.0066
 ZZZY=             -0.0078 XXYY=           -662.8299 XXZZ=           -387.7080 YYZZ=           -206.5445
 XXYZ=              0.0030 YYXZ=             -0.0305 ZZXY=             -1.4843
 N-N= 7.067544336787D+02 E-N=-2.736250905139D+03  KE= 5.553555660940D+02
 Calling FoFJK, ICntrl=      2127 FMM=F ISym2X=0 I1Cent= 0 IOpClX= 0 NMat=1 NMatS=1 NMatT=0.
 ***** Axes restored to original set *****
 -------------------------------------------------------------------
 Center     Atomic                   Forces (Hartrees/Bohr)
 Number     Number              X              Y              Z
 -------------------------------------------------------------------
      1        7          -0.102822802    0.004811678    0.000001378
      2        6           0.077761551   -0.011066127    0.000011541
      3        6           0.008697115    0.027889301   -0.000010295
      4        6          -0.020503280    0.005333691    0.000005193
      5        6           0.023034272   -0.006434169    0.000029950
      6        6           0.009800939    0.032952000   -0.000033612
      7        6           0.022134182    0.017113068   -0.000040347
      8        6           0.015531737   -0.035641114    0.000012303
      9        6          -0.095291635   -0.019929702   -0.000073655
     10        6          -0.002039662    0.044265992    0.000064938
     11        6           0.039875538    0.002452293    0.000110458
     12        6           0.013439853   -0.037740053   -0.000076955
     13        7          -0.044837453   -0.096944914    0.000003110
     14        6           0.033863131    0.065261132   -0.000059733
     15        1          -0.005646687    0.004519355    0.000014333
     16        1           0.002848145    0.007591372   -0.000019100
     17        1           0.009137598   -0.000697797    0.000038865
     18        1           0.009624035   -0.007666011    0.000001668
     19        1           0.005393422    0.003930002    0.000019960
 -------------------------------------------------------------------
 Cartesian Forces:  Max     0.102822802 RMS     0.030770866

 GradGradGradGradGradGradGradGradGradGradGradGradGradGradGradGradGradGrad
 Berny optimization.
 FormGI is forming the generalized inverse of G from B-inverse, IUseBI=4.
 Internal  Forces:  Max     0.106774684 RMS     0.021484264
 Search for a local minimum.
 Step number   1 out of a maximum of  102
 All quantities printed in internal units (Hartrees-Bohrs-Radians)
 Mixed Optimization -- RFO/linear search
 Second derivative matrix not updated -- first step.
 ITU=  0
     Eigenvalues ---    0.01606   0.01606   0.01928   0.01931   0.01968
     Eigenvalues ---    0.01992   0.02047   0.02073   0.02102   0.02110
     Eigenvalues ---    0.02125   0.02150   0.02155   0.02159   0.02163
     Eigenvalues ---    0.02192   0.04875   0.04875   0.16000   0.16000
     Eigenvalues ---    0.16000   0.16000   0.16000   0.22088   0.22502
     Eigenvalues ---    0.23514   0.24499   0.24917   0.25000   0.25000
     Eigenvalues ---    0.25000   0.34882   0.34916   0.34948   0.34955
     Eigenvalues ---    0.35084   0.38337   0.40070   0.40792   0.40859
     Eigenvalues ---    0.41750   0.43234   0.44085   0.45163   0.45432
     Eigenvalues ---    0.45719   0.45774   0.46483   0.46696   1.27400
     Eigenvalues ---    1.28216
 RFO step:  Lambda=-6.49642138D-02 EMin= 1.60596436D-02
 Linear search not attempted -- first point.
 Maximum step size (   0.300) exceeded in Quadratic search.
    -- Step size scaled by   0.807
 Iteration  1 RMS(Cart)=  0.04132014 RMS(Int)=  0.00098664
 Iteration  2 RMS(Cart)=  0.00220222 RMS(Int)=  0.00023879
 Iteration  3 RMS(Cart)=  0.00000116 RMS(Int)=  0.00023879
 Iteration  4 RMS(Cart)=  0.00000000 RMS(Int)=  0.00023879
 Variable       Old X    -DE/DX   Delta X   Delta X   Delta X     New X
                                 (Linear)    (Quad)   (Total)
    R1        2.19322   0.10291   0.00000   0.06205   0.06205   2.25527
    R2        2.71459   0.02509   0.00000   0.04351   0.04351   2.75809
    R3        2.65260   0.00993   0.00000   0.01464   0.01468   2.66728
    R4        2.67297   0.03241   0.00000   0.05351   0.05365   2.72662
    R5        2.63003   0.03031   0.00000   0.04392   0.04383   2.67385
    R6        2.05866   0.00682   0.00000   0.01330   0.01330   2.07196
    R7        2.63174   0.00411   0.00000   0.00531   0.00517   2.63692
    R8        2.05539   0.00805   0.00000   0.01563   0.01563   2.07101
    R9        2.64929   0.03710   0.00000   0.05873   0.05869   2.70798
   R10        2.05759   0.00907   0.00000   0.01767   0.01767   2.07526
   R11        2.67688   0.05039   0.00000   0.08512   0.08514   2.76202
   R12        2.65116   0.02899   0.00000   0.04495   0.04449   2.69565
   R13        2.66472   0.04009   0.00000   0.06543   0.06580   2.73052
   R14        2.63816   0.02369   0.00000   0.03660   0.03704   2.67520
   R15        2.63503   0.05487   0.00000   0.08259   0.08267   2.71770
   R16        2.70491   0.03328   0.00000   0.05683   0.05683   2.76173
   R17        2.63509  -0.00381   0.00000  -0.00705  -0.00743   2.62767
   R18        2.05749   0.01177   0.00000   0.02293   0.02293   2.08042
   R19        2.05812   0.00558   0.00000   0.01087   0.01087   2.06899
   R20        2.19086   0.10677   0.00000   0.06399   0.06399   2.25486
    A1        2.05905   0.00151   0.00000   0.00366   0.00359   2.06263
    A2        2.12371  -0.01006   0.00000  -0.02600  -0.02608   2.09763
    A3        2.10043   0.00855   0.00000   0.02234   0.02249   2.12292
    A4        2.10118   0.00225   0.00000   0.00168   0.00159   2.10277
    A5        2.10332  -0.00362   0.00000  -0.00977  -0.00973   2.09359
    A6        2.07868   0.00136   0.00000   0.00809   0.00814   2.08682
    A7        2.09099   0.00392   0.00000   0.00634   0.00607   2.09706
    A8        2.09893  -0.00297   0.00000  -0.00682  -0.00668   2.09225
    A9        2.09326  -0.00094   0.00000   0.00047   0.00061   2.09387
   A10        2.11001  -0.00063   0.00000  -0.00141  -0.00163   2.10839
   A11        2.07210   0.00165   0.00000   0.00550   0.00561   2.07770
   A12        2.10108  -0.00102   0.00000  -0.00409  -0.00398   2.09710
   A13        2.09189   0.00133   0.00000   0.00766   0.00799   2.09988
   A14        2.09789   0.00738   0.00000   0.01556   0.01586   2.11375
   A15        2.09341  -0.00872   0.00000  -0.02322  -0.02385   2.06955
   A16        2.07187  -0.01542   0.00000  -0.03661  -0.03652   2.03535
   A17        2.15008  -0.01820   0.00000  -0.05149  -0.05174   2.09834
   A18        2.06124   0.03363   0.00000   0.08810   0.08826   2.14950
   A19        2.12125  -0.05272   0.00000  -0.12996  -0.12867   1.99258
   A20        2.08921   0.02925   0.00000   0.07474   0.07524   2.16444
   A21        2.10028  -0.01221   0.00000  -0.03119  -0.03144   2.06884
   A22        2.09370  -0.01704   0.00000  -0.04355  -0.04380   2.04990
   A23        2.09255   0.00463   0.00000   0.00982   0.00944   2.10199
   A24        2.10576   0.00136   0.00000   0.00830   0.00849   2.11425
   A25        2.08487  -0.00600   0.00000  -0.01812  -0.01793   2.06695
   A26        2.10872  -0.00608   0.00000  -0.01948  -0.02041   2.08830
   A27        2.10187  -0.00073   0.00000  -0.00380  -0.00333   2.09854
   A28        2.07260   0.00681   0.00000   0.02328   0.02374   2.09635
   A29        3.17081   0.00507   0.00000   0.05054   0.05054   3.22135
   A30        3.18930  -0.00615   0.00000  -0.04363  -0.04363   3.14567
   A31        3.14186  -0.00004   0.00000  -0.00035  -0.00035   3.14150
   A32        3.14236  -0.00002   0.00000  -0.00012  -0.00012   3.14224
    D1       -3.14125  -0.00001   0.00000  -0.00009  -0.00009  -3.14134
    D2       -0.00008   0.00000   0.00000   0.00000   0.00000  -0.00008
    D3       -0.00005   0.00000   0.00000   0.00002   0.00002  -0.00004
    D4        3.14112   0.00001   0.00000   0.00010   0.00010   3.14122
    D5       -3.14138   0.00001   0.00000   0.00005   0.00005  -3.14132
    D6        0.00075  -0.00001   0.00000  -0.00006  -0.00006   0.00069
    D7        0.00063  -0.00001   0.00000  -0.00006  -0.00006   0.00057
    D8       -3.14043  -0.00002   0.00000  -0.00018  -0.00017  -3.14060
    D9       -0.00037   0.00000   0.00000   0.00001   0.00001  -0.00036
   D10        3.14158   0.00000   0.00000   0.00000   0.00000   3.14158
   D11       -3.14155  -0.00001   0.00000  -0.00007  -0.00007   3.14157
   D12        0.00040  -0.00001   0.00000  -0.00008  -0.00008   0.00032
   D13        0.00020   0.00000   0.00000  -0.00001  -0.00001   0.00019
   D14        3.14127   0.00002   0.00000   0.00022   0.00022   3.14149
   D15        3.14144   0.00000   0.00000   0.00000  -0.00001   3.14144
   D16       -0.00068   0.00002   0.00000   0.00023   0.00023  -0.00045
   D17        0.00038   0.00000   0.00000  -0.00001  -0.00001   0.00037
   D18        3.14158   0.00002   0.00000   0.00022   0.00023  -3.14137
   D19       -3.14067  -0.00003   0.00000  -0.00025  -0.00025  -3.14093
   D20        0.00053   0.00000   0.00000  -0.00002  -0.00001   0.00052
   D21       -0.00079   0.00001   0.00000   0.00006   0.00006  -0.00073
   D22        3.14030   0.00001   0.00000   0.00013   0.00013   3.14043
   D23        3.14119  -0.00002   0.00000  -0.00018  -0.00018   3.14101
   D24       -0.00091  -0.00002   0.00000  -0.00011  -0.00011  -0.00102
   D25       -3.14042  -0.00004   0.00000  -0.00037  -0.00037  -3.14080
   D26        0.00017  -0.00001   0.00000  -0.00011  -0.00012   0.00005
   D27        0.00078  -0.00002   0.00000  -0.00013  -0.00013   0.00065
   D28        3.14137   0.00001   0.00000   0.00013   0.00012   3.14150
   D29       -3.14157   0.00002   0.00000   0.00024   0.00024  -3.14133
   D30        0.00055   0.00002   0.00000   0.00016   0.00016   0.00071
   D31       -0.00005   0.00000   0.00000  -0.00003  -0.00003  -0.00008
   D32        3.14106   0.00003   0.00000   0.00031   0.00032   3.14138
   D33       -0.00010  -0.00001   0.00000  -0.00015  -0.00015  -0.00025
   D34        3.14128   0.00001   0.00000   0.00007   0.00007   3.14135
   D35       -3.14122  -0.00005   0.00000  -0.00050  -0.00049   3.14147
   D36        0.00016  -0.00003   0.00000  -0.00027  -0.00027  -0.00011
   D37       -0.00026   0.00002   0.00000   0.00022   0.00021  -0.00005
   D38       -3.14087  -0.00001   0.00000  -0.00002  -0.00003  -3.14090
   D39        3.14154   0.00000   0.00000  -0.00001  -0.00001   3.14153
   D40        0.00093  -0.00003   0.00000  -0.00024  -0.00025   0.00068
         Item               Value     Threshold  Converged?
 Maximum Force            0.106775     0.000450     NO 
 RMS     Force            0.021484     0.000300     NO 
 Maximum Displacement     0.203159     0.001800     NO 
 RMS     Displacement     0.040708     0.001200     NO 
 Predicted change in Energy=-3.419215D-02
 GradGradGradGradGradGradGradGradGradGradGradGradGradGradGradGradGradGrad

                          Input orientation:                          
 ---------------------------------------------------------------------
 Center     Atomic      Atomic             Coordinates (Angstroms)
 Number     Number       Type             X           Y           Z
 ---------------------------------------------------------------------
      1          7           0        1.138161   -0.020330    0.005007
      2          6           0        2.329099   -0.097556    0.005048
      3          6           0        3.788454   -0.075660    0.005023
      4          6           0        4.436271    1.178357    0.005053
      5          6           0        5.849063    1.256337    0.004719
      6          6           0        6.615416    0.090218    0.004790
      7          6           0        5.989789   -1.199000    0.004970
      8          6           0        4.532553   -1.311851    0.004613
      9          6           0        3.838023   -2.578913    0.003358
     10          6           0        4.692046   -3.707952    0.003422
     11          6           0        6.128098   -3.630407    0.004522
     12          6           0        6.766805   -2.395277    0.005314
     13          7           0        3.601535   -6.128283    0.002329
     14          6           0        4.089255   -5.039292    0.002475
     15          1           0        3.843525    2.100757    0.005019
     16          1           0        6.341793    2.235258    0.004730
     17          1           0        7.710549    0.171957    0.004426
     18          1           0        6.747353   -4.540641    0.004749
     19          1           0        7.860392   -2.342414    0.005494
 ---------------------------------------------------------------------
                    Distance matrix (angstroms):
                    1          2          3          4          5
     1  N    0.000000
     2  C    1.193439   0.000000
     3  C    2.650871   1.459519   0.000000
     4  C    3.509185   2.463357   1.411462   0.000000
     5  C    4.880828   3.771363   2.453635   1.414943   0.000000
     6  C    5.478370   4.290428   2.831824   2.435718   1.395397
     7  C    4.992750   3.822803   2.471390   2.839937   2.459367
     8  C    3.631794   2.515894   1.442863   2.492069   2.885965
     9  C    3.719625   2.904133   2.503745   3.804600   4.330523
    10  C    5.121392   4.314913   3.742997   4.892999   5.097338
    11  C    6.158907   5.187815   4.255604   5.097695   4.894705
    12  C    6.109174   4.997275   3.775076   4.266410   3.765175
    13  N    6.585994   6.163503   6.055509   7.354168   7.719068
    14  C    5.822280   5.245847   4.972739   6.227326   6.536962
    15  H    3.437733   2.669470   2.177114   1.096435   2.176058
    16  H    5.671460   4.641523   3.443818   2.179003   1.095932
    17  H    6.575200   5.388194   3.929903   3.425454   2.154300
    18  H    7.203905   6.265937   5.356411   6.168309   5.866164
    19  H    7.111994   5.969471   4.660349   4.911256   4.122675
                    6          7          8          9         10
     6  C    0.000000
     7  C    1.433001   0.000000
     8  C    2.510799   1.461598   0.000000
     9  C    3.852035   2.556219   1.444929   0.000000
    10  C    4.257399   2.824708   2.401403   1.415656   0.000000
    11  C    3.752403   2.435338   2.814510   2.519937   1.438145
    12  C    2.490101   1.426476   2.483081   2.934534   2.455146
    13  N    6.910371   5.477371   4.905590   3.557240   2.654660
    14  C    5.717811   4.284842   3.753709   2.473172   1.461446
    15  H    3.424273   3.936349   3.481473   4.679674   5.870357
    16  H    2.162422   3.452251   3.981875   5.426335   6.167934
    17  H    1.098179   2.200122   3.507327   4.750131   4.915796
    18  H    4.632737   3.426436   3.915408   3.508928   2.217580
    19  H    2.732702   2.192385   3.483758   4.029316   3.450089
                   11         12         13         14         15
    11  C    0.000000
    12  C    1.390501   0.000000
    13  N    3.552873   4.894310   0.000000
    14  C    2.478274   3.762990   1.193219   0.000000
    15  H    6.169726   5.362825   8.232598   7.144277   0.000000
    16  H    5.869557   4.649999   8.801013   7.615314   2.501886
    17  H    4.118510   2.735205   7.521770   6.345934   4.321359
    18  H    1.100910   2.145452   3.523746   2.704468   7.248475
    19  H    2.158650   1.094864   5.698305   4.636231   5.989740
                   16         17         18         19
    16  H    0.000000
    17  H    2.476026   0.000000
    18  H    6.788025   4.810023   0.000000
    19  H    4.822989   2.518832   2.463951   0.000000
 Stoichiometry    C12H5N2(1-)
 Framework group  C1[X(C12H5N2)]
 Deg. of freedom    51
 Full point group                 C1      NOp   1
 Largest Abelian subgroup         C1      NOp   1
 Largest concise Abelian subgroup C1      NOp   1
                         Standard orientation:                         
 ---------------------------------------------------------------------
 Center     Atomic      Atomic             Coordinates (Angstroms)
 Number     Number       Type             X           Y           Z
 ---------------------------------------------------------------------
      1          7           0       -1.732580    3.428962   -0.000515
      2          6           0       -1.621156    2.240735   -0.000442
      3          6           0       -1.601100    0.781354   -0.000239
      4          6           0       -2.835980    0.097763    0.000232
      5          6           0       -2.873322   -1.316687    0.000757
      6          6           0       -1.685659   -2.049208    0.000382
      7          6           0       -0.414955   -1.386785   -0.000308
      8          6           0       -0.344033    0.073091   -0.000160
      9          6           0        0.902544    0.803752    0.000585
     10          6           0        2.055662   -0.017469    0.000240
     11          6           0        2.019423   -1.455156   -0.000666
     12          6           0        0.803160   -2.129098   -0.000965
     13          7           0        4.443651    1.142155    0.000386
     14          6           0        3.369128    0.623337    0.000666
     15          1           0       -3.775035    0.663753    0.000508
     16          1           0       -3.837677   -1.837349    0.001135
     17          1           0       -1.735889   -3.146237    0.000902
     18          1           0        2.947078   -2.047995   -0.001128
     19          1           0        0.781749   -3.223753   -0.000999
 ---------------------------------------------------------------------
 Rotational constants (GHZ):      1.0864400      0.5560794      0.3678173
 Standard basis: STO-3G (5D, 7F)
 There are    75 symmetry adapted cartesian basis functions of A   symmetry.
 There are    75 symmetry adapted basis functions of A   symmetry.
    75 basis functions,   225 primitive gaussians,    75 cartesian basis functions
    46 alpha electrons       46 beta electrons
       nuclear repulsion energy       696.3735229219 Hartrees.
 NAtoms=   19 NActive=   19 NUniq=   19 SFac= 1.00D+00 NAtFMM=   60 NAOKFM=F Big=F
 Integral buffers will be    131072 words long.
 Raffenetti 2 integral format.
 Two-electron integral symmetry is turned on.
 One-electron integrals computed using PRISM.
 NBasis=    75 RedAO= T EigKep=  1.72D-01  NBF=    75
 NBsUse=    75 1.00D-06 EigRej= -1.00D+00 NBFU=    75
 Initial guess from the checkpoint file:  "/tmp/bnp.472664.sequoia/Gau-6388.chk"
 B after Tr=     0.000000    0.000000    0.000000
         Rot=    0.999997    0.000002    0.000000    0.002306 Ang=   0.26 deg.
 ExpMin= 1.69D-01 ExpMax= 9.91D+01 ExpMxC= 9.91D+01 IAcc=1 IRadAn=         1 AccDes= 0.00D+00
 Harris functional with IExCor=  402 and IRadAn=       1 diagonalized for initial guess.
 HarFok:  IExCor=  402 AccDes= 0.00D+00 IRadAn=         1 IDoV= 1 UseB2=F ITyADJ=14
 ICtDFT=  3500011 ScaDFX=  1.000000  1.000000  1.000000  1.000000
 FoFCou: FMM=F IPFlag=           0 FMFlag=      100000 FMFlg1=           0
         NFxFlg=           0 DoJE=T BraDBF=F KetDBF=T FulRan=T
         wScrn=  0.000000 ICntrl=     500 IOpCl=  0 I1Cent=   200000004 NGrid=           0
         NMat0=    1 NMatS0=      1 NMatT0=    0 NMatD0=    1 NMtDS0=    0 NMtDT0=    0
 Petite list used in FoFCou.
 Keep R1 ints in memory in canonical form, NReq=4993994.
 Requested convergence on RMS density matrix=1.00D-08 within 128 cycles.
 Requested convergence on MAX density matrix=1.00D-06.
 Requested convergence on             energy=1.00D-06.
 No special actions if energy rises.
 Integral accuracy reduced to 1.0D-05 until final iterations.
 Initial convergence to 1.0D-05 achieved.  Increase integral accuracy.
 SCF Done:  E(RB3LYP) =  -562.515463718     A.U. after   18 cycles
            NFock= 18  Conv=0.27D-08     -V/T= 2.0139
 Calling FoFJK, ICntrl=      2127 FMM=F ISym2X=0 I1Cent= 0 IOpClX= 0 NMat=1 NMatS=1 NMatT=0.
 ***** Axes restored to original set *****
 -------------------------------------------------------------------
 Center     Atomic                   Forces (Hartrees/Bohr)
 Number     Number              X              Y              Z
 -------------------------------------------------------------------
      1        7          -0.015909603    0.001437287    0.000005921
      2        6           0.008705055   -0.004842735   -0.000015298
      3        6           0.009063711    0.011802255   -0.000008445
      4        6          -0.007430795   -0.000437947   -0.000005575
      5        6           0.006559817   -0.004983710    0.000028328
      6        6          -0.002809147    0.008241704   -0.000012693
      7        6           0.001848839    0.011949056    0.000002396
      8        6           0.022040752   -0.007868335   -0.000005440
      9        6          -0.042764560   -0.008216897    0.000006817
     10        6           0.011214877    0.016639377    0.000004626
     11        6           0.009770389   -0.001001481    0.000030410
     12        6           0.000586371   -0.014519530   -0.000058604
     13        7          -0.006894035   -0.014207949   -0.000017982
     14        6           0.004876756    0.004732784    0.000012283
     15        1          -0.001232572    0.000620887    0.000010539
     16        1          -0.000194972    0.001893516   -0.000014491
     17        1           0.001460883   -0.001798262    0.000015921
     18        1          -0.000251953   -0.001598041    0.000002953
     19        1           0.001360185    0.002158021    0.000018333
 -------------------------------------------------------------------
 Cartesian Forces:  Max     0.042764560 RMS     0.008777011

 GradGradGradGradGradGradGradGradGradGradGradGradGradGradGradGradGradGrad
 Berny optimization.
 Using GEDIIS/GDIIS optimizer.
 FormGI is forming the generalized inverse of G from B-inverse, IUseBI=4.
 Internal  Forces:  Max     0.023324579 RMS     0.005384081
 Search for a local minimum.
 Step number   2 out of a maximum of  102
 All quantities printed in internal units (Hartrees-Bohrs-Radians)
 Mixed Optimization -- RFO/linear search
 Update second derivatives using D2CorX and points    1    2
 DE= -3.27D-02 DEPred=-3.42D-02 R= 9.56D-01
 TightC=F SS=  1.41D+00  RLast= 3.00D-01 DXNew= 5.0454D-01 8.9993D-01
 Trust test= 9.56D-01 RLast= 3.00D-01 DXMaxT set to 5.05D-01
 ITU=  1  0
 Use linear search instead of GDIIS.
     Eigenvalues ---    0.01606   0.01619   0.01926   0.01931   0.01968
     Eigenvalues ---    0.01994   0.02047   0.02076   0.02103   0.02111
     Eigenvalues ---    0.02125   0.02150   0.02155   0.02159   0.02163
     Eigenvalues ---    0.02192   0.04875   0.04904   0.15935   0.16000
     Eigenvalues ---    0.16000   0.16000   0.16054   0.22079   0.22372
     Eigenvalues ---    0.22577   0.23752   0.24525   0.24927   0.25000
     Eigenvalues ---    0.25047   0.34887   0.34914   0.34950   0.35029
     Eigenvalues ---    0.35120   0.38767   0.39895   0.40515   0.40922
     Eigenvalues ---    0.41692   0.43264   0.43810   0.45116   0.45471
     Eigenvalues ---    0.45673   0.46333   0.46647   0.50665   1.27740
     Eigenvalues ---    1.34146
 RFO step:  Lambda=-4.11273421D-03 EMin= 1.60596423D-02
 Quartic linear search produced a step of  0.40798.
 Iteration  1 RMS(Cart)=  0.02389440 RMS(Int)=  0.00077758
 Iteration  2 RMS(Cart)=  0.00178921 RMS(Int)=  0.00030339
 Iteration  3 RMS(Cart)=  0.00000076 RMS(Int)=  0.00030339
 Variable       Old X    -DE/DX   Delta X   Delta X   Delta X     New X
                                 (Linear)    (Quad)   (Total)
    R1        2.25527   0.01597   0.02532  -0.01086   0.01446   2.26973
    R2        2.75809   0.00726   0.01775   0.00441   0.02216   2.78026
    R3        2.66728  -0.00297   0.00599  -0.01614  -0.01009   2.65718
    R4        2.72662   0.00652   0.02189  -0.00406   0.01794   2.74456
    R5        2.67385   0.00526   0.01788  -0.00557   0.01227   2.68612
    R6        2.07196   0.00119   0.00543  -0.00168   0.00375   2.07571
    R7        2.63692  -0.00160   0.00211  -0.00765  -0.00564   2.63127
    R8        2.07101   0.00160   0.00638  -0.00118   0.00519   2.07621
    R9        2.70798   0.00450   0.02394  -0.01404   0.00985   2.71782
   R10        2.07526   0.00132   0.00721  -0.00326   0.00395   2.07920
   R11        2.76202   0.00435   0.03474  -0.02550   0.00923   2.77125
   R12        2.69565   0.00820   0.01815   0.00328   0.02085   2.71650
   R13        2.73052   0.01839   0.02685   0.02835   0.05565   2.78617
   R14        2.67520   0.01071   0.01511   0.01554   0.03120   2.70640
   R15        2.71770   0.00890   0.03373  -0.01298   0.02085   2.73855
   R16        2.76173   0.00946   0.02318   0.00516   0.02835   2.79008
   R17        2.62767  -0.00368  -0.00303  -0.00881  -0.01233   2.61534
   R18        2.08042   0.00118   0.00936  -0.00637   0.00299   2.08341
   R19        2.06899   0.00146   0.00444   0.00058   0.00502   2.07401
   R20        2.25486   0.01578   0.02611  -0.01206   0.01405   2.26891
    A1        2.06263   0.00164   0.00146   0.00672   0.00812   2.07075
    A2        2.09763  -0.00656  -0.01064  -0.02397  -0.03468   2.06295
    A3        2.12292   0.00492   0.00918   0.01725   0.02656   2.14949
    A4        2.10277  -0.00217   0.00065  -0.01478  -0.01415   2.08862
    A5        2.09359   0.00035  -0.00397   0.00579   0.00183   2.09543
    A6        2.08682   0.00181   0.00332   0.00899   0.01232   2.09914
    A7        2.09706   0.00041   0.00248  -0.00176   0.00051   2.09758
    A8        2.09225  -0.00127  -0.00273  -0.00635  -0.00897   2.08328
    A9        2.09387   0.00086   0.00025   0.00811   0.00846   2.10233
   A10        2.10839   0.00125  -0.00066   0.00813   0.00725   2.11564
   A11        2.07770   0.00135   0.00229   0.01033   0.01273   2.09043
   A12        2.09710  -0.00260  -0.00162  -0.01846  -0.01998   2.07712
   A13        2.09988   0.00028   0.00326  -0.00116   0.00246   2.10234
   A14        2.11375   0.00344   0.00647   0.01097   0.01787   2.13162
   A15        2.06955  -0.00372  -0.00973  -0.00981  -0.02033   2.04923
   A16        2.03535  -0.00469  -0.01490  -0.00769  -0.02263   2.01271
   A17        2.09834  -0.01004  -0.02111  -0.03255  -0.05389   2.04445
   A18        2.14950   0.01473   0.03601   0.04024   0.07652   2.22602
   A19        1.99258  -0.02332  -0.05249  -0.05937  -0.11016   1.88242
   A20        2.16444   0.01288   0.03069   0.03468   0.06596   2.23041
   A21        2.06884  -0.00411  -0.01283  -0.00753  -0.02065   2.04819
   A22        2.04990  -0.00877  -0.01787  -0.02715  -0.04531   2.00458
   A23        2.10199   0.00080   0.00385  -0.00326   0.00005   2.10204
   A24        2.11425  -0.00155   0.00346  -0.01509  -0.01136   2.10289
   A25        2.06695   0.00075  -0.00731   0.01835   0.01131   2.07825
   A26        2.08830  -0.00136  -0.00833  -0.00248  -0.01204   2.07626
   A27        2.09854  -0.00148  -0.00136  -0.01026  -0.01100   2.08754
   A28        2.09635   0.00284   0.00969   0.01274   0.02304   2.11939
   A29        3.22135   0.00091   0.02062   0.01104   0.03166   3.25301
   A30        3.14567  -0.00108  -0.01780   0.00045  -0.01735   3.12832
   A31        3.14150   0.00001  -0.00014   0.00131   0.00116   3.14267
   A32        3.14224  -0.00003  -0.00005  -0.00072  -0.00077   3.14147
    D1       -3.14134   0.00000  -0.00003  -0.00013  -0.00016  -3.14150
    D2       -0.00008   0.00000   0.00000   0.00009   0.00009   0.00002
    D3       -0.00004   0.00000   0.00001   0.00009   0.00010   0.00007
    D4        3.14122   0.00001   0.00004   0.00031   0.00035   3.14158
    D5       -3.14132   0.00000   0.00002  -0.00015  -0.00014  -3.14146
    D6        0.00069  -0.00001  -0.00002  -0.00047  -0.00049   0.00021
    D7        0.00057  -0.00001  -0.00002  -0.00038  -0.00040   0.00016
    D8       -3.14060  -0.00002  -0.00007  -0.00069  -0.00075  -3.14135
    D9       -0.00036   0.00000   0.00000   0.00022   0.00022  -0.00014
   D10        3.14158   0.00000   0.00000  -0.00017  -0.00017   3.14141
   D11        3.14157   0.00000  -0.00003   0.00000  -0.00003   3.14153
   D12        0.00032  -0.00001  -0.00003  -0.00039  -0.00042  -0.00011
   D13        0.00019   0.00000  -0.00001  -0.00021  -0.00021  -0.00003
   D14        3.14149   0.00000   0.00009   0.00001   0.00010   3.14159
   D15        3.14144   0.00000   0.00000   0.00018   0.00018  -3.14157
   D16       -0.00045   0.00001   0.00009   0.00040   0.00050   0.00005
   D17        0.00037   0.00000   0.00000  -0.00010  -0.00010   0.00027
   D18       -3.14137   0.00000   0.00009  -0.00001   0.00008  -3.14129
   D19       -3.14093  -0.00001  -0.00010  -0.00032  -0.00042  -3.14135
   D20        0.00052   0.00000  -0.00001  -0.00024  -0.00024   0.00028
   D21       -0.00073   0.00001   0.00002   0.00038   0.00040  -0.00033
   D22        3.14043   0.00001   0.00005   0.00069   0.00076   3.14118
   D23        3.14101   0.00000  -0.00008   0.00030   0.00022   3.14124
   D24       -0.00102   0.00000  -0.00005   0.00061   0.00058  -0.00044
   D25       -3.14080  -0.00002  -0.00015  -0.00047  -0.00062  -3.14142
   D26        0.00005   0.00000  -0.00005   0.00023   0.00017   0.00022
   D27        0.00065  -0.00001  -0.00005  -0.00039  -0.00044   0.00021
   D28        3.14150   0.00001   0.00005   0.00031   0.00035  -3.14134
   D29       -3.14133   0.00000   0.00010  -0.00027  -0.00017  -3.14150
   D30        0.00071  -0.00001   0.00007  -0.00060  -0.00053   0.00018
   D31       -0.00008   0.00001  -0.00001   0.00041   0.00039   0.00031
   D32        3.14138   0.00001   0.00013   0.00040   0.00052  -3.14128
   D33       -0.00025  -0.00001  -0.00006  -0.00021  -0.00028  -0.00053
   D34        3.14135   0.00000   0.00003  -0.00028  -0.00026   3.14109
   D35        3.14147  -0.00001  -0.00020  -0.00020  -0.00041   3.14106
   D36       -0.00011  -0.00001  -0.00011  -0.00028  -0.00039  -0.00051
   D37       -0.00005   0.00001   0.00009   0.00018   0.00027   0.00022
   D38       -3.14090  -0.00001  -0.00001  -0.00051  -0.00052  -3.14142
   D39        3.14153   0.00000   0.00000   0.00026   0.00025  -3.14140
   D40        0.00068  -0.00001  -0.00010  -0.00043  -0.00054   0.00014
         Item               Value     Threshold  Converged?
 Maximum Force            0.023325     0.000450     NO 
 RMS     Force            0.005384     0.000300     NO 
 Maximum Displacement     0.152067     0.001800     NO 
 RMS     Displacement     0.024314     0.001200     NO 
 Predicted change in Energy=-4.280046D-03
 GradGradGradGradGradGradGradGradGradGradGradGradGradGradGradGradGradGrad

                          Input orientation:                          
 ---------------------------------------------------------------------
 Center     Atomic      Atomic             Coordinates (Angstroms)
 Number     Number       Type             X           Y           Z
 ---------------------------------------------------------------------
      1          7           0        1.143651   -0.045863    0.005663
      2          6           0        2.341620   -0.132383    0.004463
      3          6           0        3.811730   -0.074549    0.004584
      4          6           0        4.436774    1.185012    0.004873
      5          6           0        5.855884    1.266252    0.004875
      6          6           0        6.623572    0.104590    0.004761
      7          6           0        6.008394   -1.195413    0.004674
      8          6           0        4.547790   -1.326570    0.004361
      9          6           0        3.757553   -2.571285    0.003755
     10          6           0        4.673049   -3.672635    0.003759
     11          6           0        6.121391   -3.623524    0.004609
     12          6           0        6.781680   -2.407212    0.004926
     13          7           0        3.616171   -6.132220    0.001875
     14          6           0        4.098242   -5.032594    0.002785
     15          1           0        3.829742    2.100456    0.005018
     16          1           0        6.339008    2.253011    0.004922
     17          1           0        7.721563    0.175324    0.004763
     18          1           0        6.712608   -4.554089    0.004985
     19          1           0        7.877759   -2.350996    0.005408
 ---------------------------------------------------------------------
                    Distance matrix (angstroms):
                    1          2          3          4          5
     1  N    0.000000
     2  C    1.201090   0.000000
     3  C    2.668234   1.471248   0.000000
     4  C    3.515638   2.474914   1.406120   0.000000
     5  C    4.891502   3.782358   2.444650   1.421434   0.000000
     6  C    5.481986   4.288505   2.817543   2.439139   1.392410
     7  C    4.998718   3.817756   2.466103   2.852439   2.466385
     8  C    3.637083   2.508639   1.452357   2.514034   2.904107
     9  C    3.634590   2.820126   2.497324   3.817212   4.373750
    10  C    5.060645   4.238979   3.699742   4.863390   5.078554
    11  C    6.130053   5.145360   4.234354   5.095091   4.896979
    12  C    6.112556   4.988886   3.776495   4.289832   3.788330
    13  N    6.569407   6.133720   6.060827   7.363102   7.730053
    14  C    5.796301   5.205554   4.966317   6.226816   6.539479
    15  H    3.438280   2.683296   2.175080   1.098420   2.191152
    16  H    5.681246   4.655021   3.435792   2.181540   1.098681
    17  H    6.581630   5.388736   3.917809   3.436468   2.161223
    18  H    7.165010   6.217476   5.336793   6.173872   5.883056
    19  H    7.117714   5.964150   4.659915   4.933937   4.143968
                    6          7          8          9         10
     6  C    0.000000
     7  C    1.438211   0.000000
     8  C    2.521327   1.466481   0.000000
     9  C    3.921017   2.638050   1.474378   0.000000
    10  C    4.251114   2.814210   2.349407   1.432168   0.000000
    11  C    3.761783   2.430739   2.784280   2.587458   1.449176
    12  C    2.516773   1.437508   2.481542   3.028575   2.459192
    13  N    6.924035   5.485873   4.895119   3.563741   2.677041
    14  C    5.724330   4.286332   3.733191   2.484776   1.476446
    15  H    3.433507   3.950857   3.501443   4.672299   5.834359
    16  H    2.167185   3.464236   4.002731   5.471539   6.155380
    17  H    1.100267   2.194053   3.511199   4.822576   4.909199
    18  H    4.659529   3.431708   3.886298   3.558632   2.221883
    19  H    2.757334   2.197704   3.483984   4.126092   3.466541
                   11         12         13         14         15
    11  C    0.000000
    12  C    1.383978   0.000000
    13  N    3.545376   4.888368   0.000000
    14  C    2.465485   3.754128   1.200654   0.000000
    15  H    6.165679   5.388229   8.235446   7.138102   0.000000
    16  H    5.880562   4.681200   8.816232   7.622406   2.513899
    17  H    4.122110   2.748249   7.525913   6.344358   4.341936
    18  H    1.102492   2.147987   3.475403   2.657796   7.252164
    19  H    2.168906   1.097520   5.697263   4.634191   6.016799
                   16         17         18         19
    16  H    0.000000
    17  H    2.495645   0.000000
    18  H    6.817344   4.835838   0.000000
    19  H    4.854342   2.531144   2.492227   0.000000
 Stoichiometry    C12H5N2(1-)
 Framework group  C1[X(C12H5N2)]
 Deg. of freedom    51
 Full point group                 C1      NOp   1
 Largest Abelian subgroup         C1      NOp   1
 Largest concise Abelian subgroup C1      NOp   1
                         Standard orientation:                         
 ---------------------------------------------------------------------
 Center     Atomic      Atomic             Coordinates (Angstroms)
 Number     Number       Type             X           Y           Z
 ---------------------------------------------------------------------
      1          7           0       -1.677154    3.440490   -0.001083
      2          6           0       -1.566701    2.244490    0.000181
      3          6           0       -1.595132    0.773517    0.000195
      4          6           0       -2.841945    0.123417    0.000377
      5          6           0       -2.894799   -1.297033    0.000512
      6          6           0       -1.718020   -2.041344    0.000297
      7          6           0       -0.430577   -1.400298   -0.000100
      8          6           0       -0.328646    0.062636    0.000055
      9          6           0        0.900021    0.877600    0.000182
     10          6           0        2.019454   -0.015695   -0.000119
     11          6           0        1.999308   -1.464730   -0.000840
     12          6           0        0.796440   -2.149204   -0.000697
     13          7           0        4.457418    1.090145    0.000858
     14          6           0        3.367650    0.586186    0.000355
     15          1           0       -3.769343    0.712026    0.000491
     16          1           0       -3.871701   -1.799788    0.000834
     17          1           0       -1.766789   -3.140530    0.000405
     18          1           0        2.941507   -2.037224   -0.001481
     19          1           0        0.762149   -3.246188   -0.001074
 ---------------------------------------------------------------------
 Rotational constants (GHZ):      1.0832696      0.5577834      0.3681964
 Standard basis: STO-3G (5D, 7F)
 There are    75 symmetry adapted cartesian basis functions of A   symmetry.
 There are    75 symmetry adapted basis functions of A   symmetry.
    75 basis functions,   225 primitive gaussians,    75 cartesian basis functions
    46 alpha electrons       46 beta electrons
       nuclear repulsion energy       694.8784007347 Hartrees.
 NAtoms=   19 NActive=   19 NUniq=   19 SFac= 1.00D+00 NAtFMM=   60 NAOKFM=F Big=F
 Integral buffers will be    131072 words long.
 Raffenetti 2 integral format.
 Two-electron integral symmetry is turned on.
 One-electron integrals computed using PRISM.
 NBasis=    75 RedAO= T EigKep=  1.77D-01  NBF=    75
 NBsUse=    75 1.00D-06 EigRej= -1.00D+00 NBFU=    75
 Initial guess from the checkpoint file:  "/tmp/bnp.472664.sequoia/Gau-6388.chk"
 B after Tr=     0.000000    0.000000    0.000000
         Rot=    0.999989    0.000001    0.000001    0.004692 Ang=   0.54 deg.
 ExpMin= 1.69D-01 ExpMax= 9.91D+01 ExpMxC= 9.91D+01 IAcc=1 IRadAn=         1 AccDes= 0.00D+00
 Harris functional with IExCor=  402 and IRadAn=       1 diagonalized for initial guess.
 HarFok:  IExCor=  402 AccDes= 0.00D+00 IRadAn=         1 IDoV= 1 UseB2=F ITyADJ=14
 ICtDFT=  3500011 ScaDFX=  1.000000  1.000000  1.000000  1.000000
 FoFCou: FMM=F IPFlag=           0 FMFlag=      100000 FMFlg1=           0
         NFxFlg=           0 DoJE=T BraDBF=F KetDBF=T FulRan=T
         wScrn=  0.000000 ICntrl=     500 IOpCl=  0 I1Cent=   200000004 NGrid=           0
         NMat0=    1 NMatS0=      1 NMatT0=    0 NMatD0=    1 NMtDS0=    0 NMtDT0=    0
 Petite list used in FoFCou.
 Keep R1 ints in memory in canonical form, NReq=4993994.
 Requested convergence on RMS density matrix=1.00D-08 within 128 cycles.
 Requested convergence on MAX density matrix=1.00D-06.
 Requested convergence on             energy=1.00D-06.
 No special actions if energy rises.
 Integral accuracy reduced to 1.0D-05 until final iterations.
 Initial convergence to 1.0D-05 achieved.  Increase integral accuracy.
 SCF Done:  E(RB3LYP) =  -562.520227093     A.U. after   14 cycles
            NFock= 14  Conv=0.69D-08     -V/T= 2.0140
 Calling FoFJK, ICntrl=      2127 FMM=F ISym2X=0 I1Cent= 0 IOpClX= 0 NMat=1 NMatS=1 NMatT=0.
 ***** Axes restored to original set *****
 -------------------------------------------------------------------
 Center     Atomic                   Forces (Hartrees/Bohr)
 Number     Number              X              Y              Z
 -------------------------------------------------------------------
      1        7           0.001341934   -0.000420341   -0.000042011
      2        6          -0.002243819   -0.000389106    0.000080127
      3        6           0.000490901    0.001266186   -0.000036172
      4        6          -0.001866592   -0.000308074   -0.000004887
      5        6           0.001439502    0.000274891   -0.000000405
      6        6          -0.001085541   -0.000039197    0.000003645
      7        6          -0.004152631   -0.000038980   -0.000001373
      8        6           0.007597290    0.008069547    0.000008034
      9        6          -0.003346190   -0.001930587   -0.000009329
     10        6           0.002212856   -0.004139509    0.000004778
     11        6           0.000011964    0.000198360   -0.000007058
     12        6           0.001880157   -0.000151277    0.000002858
     13        7           0.001258935    0.001738052    0.000003384
     14        6          -0.001745204   -0.003034998    0.000001573
     15        1           0.000644599   -0.000351436   -0.000002537
     16        1          -0.000022760   -0.000531104    0.000003124
     17        1          -0.000446211   -0.000330806    0.000001205
     18        1          -0.001626830    0.000077100   -0.000006494
     19        1          -0.000342361    0.000041279    0.000001537
 -------------------------------------------------------------------
 Cartesian Forces:  Max     0.008069547 RMS     0.001952617

 GradGradGradGradGradGradGradGradGradGradGradGradGradGradGradGradGradGrad
 Berny optimization.
 Using GEDIIS/GDIIS optimizer.
 FormGI is forming the generalized inverse of G from B-inverse, IUseBI=4.
 Internal  Forces:  Max     0.006137774 RMS     0.001134617
 Search for a local minimum.
 Step number   3 out of a maximum of  102
 All quantities printed in internal units (Hartrees-Bohrs-Radians)
 Mixed Optimization -- RFO/linear search
 Update second derivatives using D2CorX and points    1    2    3
 DE= -4.76D-03 DEPred=-4.28D-03 R= 1.11D+00
 TightC=F SS=  1.41D+00  RLast= 2.05D-01 DXNew= 8.4853D-01 6.1561D-01
 Trust test= 1.11D+00 RLast= 2.05D-01 DXMaxT set to 6.16D-01
 ITU=  1  1  0
 Use linear search instead of GDIIS.
     Eigenvalues ---    0.01606   0.01618   0.01924   0.01932   0.01969
     Eigenvalues ---    0.01995   0.02046   0.02078   0.02105   0.02112
     Eigenvalues ---    0.02126   0.02151   0.02155   0.02159   0.02163
     Eigenvalues ---    0.02192   0.04875   0.04909   0.15651   0.16000
     Eigenvalues ---    0.16000   0.16005   0.16057   0.20968   0.22088
     Eigenvalues ---    0.22706   0.23748   0.24536   0.24950   0.25002
     Eigenvalues ---    0.25663   0.34891   0.34912   0.34948   0.35037
     Eigenvalues ---    0.35141   0.37898   0.39055   0.40292   0.40896
     Eigenvalues ---    0.41585   0.43286   0.43622   0.44986   0.45437
     Eigenvalues ---    0.45731   0.46341   0.46641   0.51359   1.27728
     Eigenvalues ---    1.36426
 RFO step:  Lambda=-3.46857877D-04 EMin= 1.60598173D-02
 Quartic linear search produced a step of  0.00163.
 Iteration  1 RMS(Cart)=  0.01330159 RMS(Int)=  0.00025608
 Iteration  2 RMS(Cart)=  0.00026105 RMS(Int)=  0.00000125
 Iteration  3 RMS(Cart)=  0.00000004 RMS(Int)=  0.00000125
 Variable       Old X    -DE/DX   Delta X   Delta X   Delta X     New X
                                 (Linear)    (Quad)   (Total)
    R1        2.26973  -0.00137   0.00002   0.00033   0.00036   2.27009
    R2        2.78026   0.00093   0.00004   0.00349   0.00352   2.78378
    R3        2.65718  -0.00084  -0.00002  -0.00133  -0.00134   2.65584
    R4        2.74456  -0.00001   0.00003   0.00124   0.00127   2.74582
    R5        2.68612   0.00101   0.00002   0.00356   0.00358   2.68970
    R6        2.07571  -0.00065   0.00001  -0.00151  -0.00150   2.07421
    R7        2.63127  -0.00029  -0.00001  -0.00045  -0.00046   2.63082
    R8        2.07621  -0.00049   0.00001  -0.00097  -0.00096   2.07524
    R9        2.71782  -0.00090   0.00002  -0.00084  -0.00083   2.71700
   R10        2.07920  -0.00047   0.00001  -0.00089  -0.00088   2.07832
   R11        2.77125  -0.00443   0.00002  -0.00878  -0.00877   2.76248
   R12        2.71650   0.00195   0.00003   0.00516   0.00520   2.72169
   R13        2.78617   0.00614   0.00009   0.01592   0.01601   2.80218
   R14        2.70640   0.00318   0.00005   0.00819   0.00824   2.71464
   R15        2.73855  -0.00105   0.00003  -0.00007  -0.00003   2.73851
   R16        2.79008   0.00138   0.00005   0.00489   0.00493   2.79501
   R17        2.61534   0.00160  -0.00002   0.00300   0.00298   2.61832
   R18        2.08341  -0.00094   0.00000  -0.00211  -0.00210   2.08131
   R19        2.07401  -0.00034   0.00001  -0.00067  -0.00066   2.07335
   R20        2.26891  -0.00210   0.00002  -0.00019  -0.00016   2.26874
    A1        2.07075   0.00173   0.00001   0.00692   0.00693   2.07768
    A2        2.06295  -0.00116  -0.00006  -0.00566  -0.00572   2.05723
    A3        2.14949  -0.00057   0.00004  -0.00126  -0.00121   2.14827
    A4        2.08862  -0.00097  -0.00002  -0.00321  -0.00323   2.08538
    A5        2.09543   0.00084   0.00000   0.00351   0.00351   2.09894
    A6        2.09914   0.00013   0.00002  -0.00030  -0.00028   2.09886
    A7        2.09758  -0.00018   0.00000   0.00022   0.00022   2.09780
    A8        2.08328   0.00031  -0.00001   0.00107   0.00106   2.08434
    A9        2.10233  -0.00013   0.00001  -0.00129  -0.00128   2.10105
   A10        2.11564   0.00067   0.00001   0.00256   0.00257   2.11820
   A11        2.09043  -0.00002   0.00002   0.00092   0.00094   2.09138
   A12        2.07712  -0.00064  -0.00003  -0.00348  -0.00351   2.07361
   A13        2.10234  -0.00087   0.00000  -0.00399  -0.00399   2.09835
   A14        2.13162   0.00009   0.00003   0.00215   0.00218   2.13379
   A15        2.04923   0.00079  -0.00003   0.00185   0.00181   2.05104
   A16        2.01271   0.00193  -0.00004   0.00568   0.00565   2.01836
   A17        2.04445  -0.00066  -0.00009  -0.00366  -0.00375   2.04070
   A18        2.22602  -0.00128   0.00012  -0.00202  -0.00190   2.22412
   A19        1.88242   0.00126  -0.00018   0.00183   0.00165   1.88407
   A20        2.23041  -0.00206   0.00011  -0.00526  -0.00515   2.22525
   A21        2.04819   0.00163  -0.00003   0.00529   0.00526   2.05345
   A22        2.00458   0.00042  -0.00007  -0.00003  -0.00010   2.00448
   A23        2.10204   0.00083   0.00000   0.00352   0.00352   2.10556
   A24        2.10289  -0.00180  -0.00002  -0.01007  -0.01009   2.09280
   A25        2.07825   0.00097   0.00002   0.00655   0.00657   2.08483
   A26        2.07626   0.00046  -0.00002   0.00009   0.00007   2.07633
   A27        2.08754  -0.00029  -0.00002  -0.00094  -0.00096   2.08658
   A28        2.11939  -0.00017   0.00004   0.00085   0.00089   2.12028
   A29        3.25301  -0.00074   0.00005  -0.03977  -0.03972   3.21329
   A30        3.12832   0.00104  -0.00003   0.01896   0.01893   3.14725
   A31        3.14267  -0.00009   0.00000  -0.00538  -0.00537   3.13729
   A32        3.14147   0.00000   0.00000   0.00009   0.00009   3.14156
    D1       -3.14150  -0.00001   0.00000  -0.00026  -0.00026   3.14143
    D2        0.00002   0.00000   0.00000  -0.00014  -0.00014  -0.00012
    D3        0.00007   0.00000   0.00000  -0.00013  -0.00013  -0.00006
    D4        3.14158   0.00000   0.00000  -0.00001  -0.00001   3.14157
    D5       -3.14146   0.00000   0.00000   0.00012   0.00012  -3.14134
    D6        0.00021   0.00000   0.00000   0.00011   0.00011   0.00031
    D7        0.00016   0.00000   0.00000   0.00000   0.00000   0.00016
    D8       -3.14135   0.00000   0.00000  -0.00002  -0.00002  -3.14137
    D9       -0.00014   0.00000   0.00000   0.00013   0.00013  -0.00001
   D10        3.14141   0.00000   0.00000   0.00015   0.00015   3.14155
   D11        3.14153   0.00000   0.00000   0.00001   0.00001   3.14154
   D12       -0.00011   0.00000   0.00000   0.00003   0.00003  -0.00008
   D13       -0.00003   0.00000   0.00000   0.00000   0.00000  -0.00003
   D14        3.14159   0.00000   0.00000  -0.00002  -0.00002   3.14158
   D15       -3.14157   0.00000   0.00000  -0.00001  -0.00001  -3.14159
   D16        0.00005   0.00000   0.00000  -0.00003  -0.00003   0.00002
   D17        0.00027   0.00000   0.00000  -0.00014  -0.00014   0.00013
   D18       -3.14129   0.00000   0.00000  -0.00012  -0.00012  -3.14141
   D19       -3.14135   0.00000   0.00000  -0.00012  -0.00012  -3.14147
   D20        0.00028   0.00000   0.00000  -0.00010  -0.00010   0.00018
[...]
 ! D16   D(16,5,6,17)            0.0001         -DE/DX =    0.0                 !
 ! D17   D(5,6,7,8)              0.0006         -DE/DX =    0.0                 !
 ! D18   D(5,6,7,12)          -179.9991         -DE/DX =    0.0                 !
 ! D19   D(17,6,7,8)          -179.9994         -DE/DX =    0.0                 !
 ! D20   D(17,6,7,12)            0.0009         -DE/DX =    0.0                 !
 ! D21   D(6,7,8,3)             -0.0008         -DE/DX =    0.0                 !
 ! D22   D(6,7,8,9)            179.9987         -DE/DX =    0.0                 !
 ! D23   D(12,7,8,3)           179.9989         -DE/DX =    0.0                 !
 ! D24   D(12,7,8,9)            -0.0016         -DE/DX =    0.0                 !
 ! D25   D(6,7,12,11)         -179.9995         -DE/DX =    0.0                 !
 ! D26   D(6,7,12,19)            0.0007         -DE/DX =    0.0                 !
 ! D27   D(8,7,12,11)            0.0008         -DE/DX =    0.0                 !
 ! D28   D(8,7,12,19)         -179.999          -DE/DX =    0.0                 !
 ! D29   D(3,8,9,10)          -179.9996         -DE/DX =    0.0                 !
 ! D30   D(7,8,9,10)             0.0008         -DE/DX =    0.0                 !
 ! D31   D(8,9,10,11)            0.0006         -DE/DX =    0.0                 !
 ! D32   D(8,9,10,14)         -179.9995         -DE/DX =    0.0                 !
 ! D33   D(9,10,11,12)          -0.0013         -DE/DX =    0.0                 !
 ! D34   D(9,10,11,18)         179.9984         -DE/DX =    0.0                 !
 ! D35   D(14,10,11,12)        179.9988         -DE/DX =    0.0                 !
 ! D36   D(14,10,11,18)         -0.0015         -DE/DX =    0.0                 !
 ! D37   D(10,11,12,7)           0.0005         -DE/DX =    0.0                 !
 ! D38   D(10,11,12,19)       -179.9997         -DE/DX =    0.0                 !
 ! D39   D(18,11,12,7)        -179.9993         -DE/DX =    0.0                 !
 ! D40   D(18,11,12,19)          0.0006         -DE/DX =    0.0                 !
 --------------------------------------------------------------------------------
 GradGradGradGradGradGradGradGradGradGradGradGradGradGradGradGradGradGrad

                          Input orientation:                          
 ---------------------------------------------------------------------
 Center     Atomic      Atomic             Coordinates (Angstroms)
 Number     Number       Type             X           Y           Z
 ---------------------------------------------------------------------
      1          7           0        1.144846   -0.075013    0.004279
      2          6           0        2.343507   -0.143160    0.004413
      3          6           0        3.814278   -0.065202    0.004627
      4          6           0        4.437657    1.193665    0.005011
      5          6           0        5.859061    1.270052    0.005211
      6          6           0        6.623535    0.107112    0.005034
      7          6           0        6.008073   -1.192486    0.004649
      8          6           0        4.555665   -1.312910    0.004422
      9          6           0        3.753240   -2.563782    0.003995
     10          6           0        4.666077   -3.672975    0.003857
     11          6           0        6.113724   -3.622048    0.004097
     12          6           0        6.779639   -2.408263    0.004480
     13          7           0        3.632042   -6.142039    0.003071
     14          6           0        4.094553   -5.035014    0.003426
     15          1           0        3.835804    2.111516    0.005154
     16          1           0        6.346072    2.254206    0.005504
     17          1           0        7.721155    0.174716    0.005190
     18          1           0        6.694005   -4.558197    0.003977
     19          1           0        7.875244   -2.354867    0.004660
 ---------------------------------------------------------------------
                    Distance matrix (angstroms):
                    1          2          3          4          5
     1  N    0.000000
     2  C    1.200596   0.000000
     3  C    2.669450   1.472836   0.000000
     4  C    3.528760   2.484465   1.404759   0.000000
     5  C    4.902349   3.788970   2.442139   1.423455   0.000000
     6  C    5.481716   4.287340   2.814537   2.441037   1.391707
     7  C    4.989963   3.811841   2.466477   2.856559   2.467043
     8  C    3.628509   2.502391   1.451355   2.509352   2.893188
     9  C    3.605231   2.801206   2.499325   3.819271   4.374101
    10  C    5.034322   4.225390   3.706964   4.871997   5.084950
    11  C    6.105015   5.130029   4.235399   5.099048   4.898724
    12  C    6.098766   4.980960   3.779325   4.296366   3.791762
    13  N    6.557053   6.135704   6.079569   7.379808   7.739426
    14  C    5.770821   5.195806   4.977709   6.238122   6.547316
    15  H    3.467300   2.703797   2.176825   1.097578   2.191263
    16  H    5.698949   4.665608   3.433604   2.183299   1.098062
    17  H    6.581049   5.387035   3.914237   3.437967   2.160360
    18  H    7.133870   6.198337   5.336649   6.178594   5.887751
    19  H    7.106053   5.957497   4.661975   4.940555   4.147895
                    6          7          8          9         10
     6  C    0.000000
     7  C    1.437967   0.000000
     8  C    2.508495   1.457392   0.000000
     9  C    3.920748   2.639076   1.486124   0.000000
    10  C    4.256841   2.820244   2.362646   1.436517   0.000000
    11  C    3.763847   2.431858   2.785617   2.586854   1.448542
    12  C    2.520214   1.439939   2.479084   3.030393   2.463055
    13  N    6.928270   5.490319   4.916662   3.580309   2.676847
    14  C    5.730377   4.292619   3.750558   2.494691   1.477089
    15  H    3.433523   3.954135   3.499271   4.676027   5.843774
    16  H    2.164948   3.463226   3.991225   5.471361   6.160670
    17  H    1.099700   2.191778   3.497621   4.821174   4.913066
    18  H    4.665841   3.434896   3.886435   3.553279   2.212716
    19  H    2.761905   2.199422   3.479264   4.127295   3.469317
                   11         12         13         14         15
    11  C    0.000000
    12  C    1.384456   0.000000
    13  N    3.536821   4.883488   0.000000
    14  C    2.464453   3.756264   1.199758   0.000000
    15  H    6.169496   5.393938   8.256070   7.151213   0.000000
    16  H    5.880846   4.682584   8.823996   7.629029   2.514320
    17  H    4.123015   2.749223   7.524775   6.347719   4.341330
    18  H    1.101408   2.151639   3.447344   2.642822   7.256334
    19  H    2.169954   1.096905   5.687481   4.634308   6.022097
                   16         17         18         19
    16  H    0.000000
    17  H    2.493017   0.000000
    18  H    6.821282   4.843087   0.000000
    19  H    4.856123   2.534272   2.499997   0.000000
 Stoichiometry    C12H5N2(1-)
 Framework group  C1[X(C12H5N2)]
 Deg. of freedom    51
 Full point group                 C1      NOp   1
 Largest Abelian subgroup         C1      NOp   1
 Largest concise Abelian subgroup C1      NOp   1
                         Standard orientation:                         
 ---------------------------------------------------------------------
 Center     Atomic      Atomic             Coordinates (Angstroms)
 Number     Number       Type             X           Y           Z
 ---------------------------------------------------------------------
      1          7           0       -1.634409    3.447292   -0.000022
      2          6           0       -1.547255    2.249863   -0.000009
      3          6           0       -1.601870    0.778040   -0.000002
      4          6           0       -2.850690    0.134768    0.000009
      5          6           0       -2.904517   -1.287669    0.000022
      6          6           0       -1.729596   -2.033598    0.000018
      7          6           0       -0.439925   -1.397596   -0.000001
      8          6           0       -0.342558    0.056540   -0.000002
      9          6           0        0.895426    0.878708    0.000006
     10          6           0        2.018961   -0.016417   -0.000004
     11          6           0        1.991007   -1.464690   -0.000032
     12          6           0        0.787938   -2.149777   -0.000026
     13          7           0        4.471310    1.056658    0.000033
     14          6           0        3.371762    0.576643    0.000014
     15          1           0       -3.777974    0.721984    0.000009
     16          1           0       -3.880822   -1.790232    0.000038
     17          1           0       -1.779778   -3.132152    0.000029
     18          1           0        2.936243   -2.030047   -0.000064
     19          1           0        0.751931   -3.246091   -0.000042
 ---------------------------------------------------------------------
 Rotational constants (GHZ):      1.0853430      0.5571480      0.3681583

 **********************************************************************

            Population analysis using the SCF density.

 **********************************************************************

 Orbital symmetries:
       Occupied  (A) (A) (A) (A) (A) (A) (A) (A) (A) (A) (A) (A)
                 (A) (A) (A) (A) (A) (A) (A) (A) (A) (A) (A) (A)
                 (A) (A) (A) (A) (A) (A) (A) (A) (A) (A) (A) (A)
                 (A) (A) (A) (A) (A) (A) (A) (A) (A) (A)
       Virtual   (A) (A) (A) (A) (A) (A) (A) (A) (A) (A) (A) (A)
                 (A) (A) (A) (A) (A) (A) (A) (A) (A) (A) (A) (A)
                 (A) (A) (A) (A) (A)
 The electronic state is 1-A.
 Alpha  occ. eigenvalues --  -13.96989 -13.92973  -9.89558  -9.87833  -9.87803
 Alpha  occ. eigenvalues --   -9.87683  -9.87319  -9.86451  -9.84851  -9.83868
 Alpha  occ. eigenvalues --   -9.83810  -9.83776  -9.82502  -9.68254  -0.70447
 Alpha  occ. eigenvalues --   -0.67596  -0.66878  -0.61623  -0.57981  -0.54354
 Alpha  occ. eigenvalues --   -0.51088  -0.44683  -0.42339  -0.39540  -0.33976
 Alpha  occ. eigenvalues --   -0.32882  -0.30417  -0.27799  -0.24860  -0.22846
 Alpha  occ. eigenvalues --   -0.20464  -0.19866  -0.19660  -0.17225  -0.14950
 Alpha  occ. eigenvalues --   -0.13497  -0.13333  -0.13171  -0.11107  -0.09973
 Alpha  occ. eigenvalues --   -0.09960  -0.07895  -0.05931  -0.02977   0.01970
 Alpha  occ. eigenvalues --    0.10317
 Alpha virt. eigenvalues --    0.17676   0.21338   0.27046   0.28161   0.29982
 Alpha virt. eigenvalues --    0.31317   0.33450   0.39156   0.44523   0.46329
 Alpha virt. eigenvalues --    0.47373   0.49644   0.53611   0.54955   0.57377
 Alpha virt. eigenvalues --    0.58399   0.59020   0.62030   0.67697   0.69072
 Alpha virt. eigenvalues --    0.70173   0.76056   0.78090   0.82125   0.84632
 Alpha virt. eigenvalues --    0.92377   0.92920   1.07587   1.10878
          Condensed to atoms (all electrons):
               1          2          3          4          5          6
     1  N    6.589936   0.659948  -0.010139  -0.000257  -0.000001   0.000000
     2  C    0.659948   4.920688   0.407344  -0.030456   0.000907   0.000013
     3  C   -0.010139   0.407344   4.785574   0.505176  -0.028839  -0.010309
     4  C   -0.000257  -0.030456   0.505176   4.840789   0.481046  -0.029553
     5  C   -0.000001   0.000907  -0.028839   0.481046   4.824491   0.521373
     6  C    0.000000   0.000013  -0.010309  -0.029553   0.521373   4.837073
     7  C   -0.000002   0.000949  -0.033312  -0.008432  -0.027733   0.467656
     8  C    0.000086  -0.030108   0.454575  -0.025612  -0.008198  -0.023415
     9  C   -0.000766   0.004625  -0.037018   0.000747   0.000017   0.000575
    10  C    0.000002  -0.000015   0.001425  -0.000015   0.000001   0.000052
    11  C    0.000000   0.000001   0.000012   0.000001  -0.000008   0.000801
    12  C    0.000000  -0.000005   0.000880   0.000031   0.000769  -0.029133
    13  N    0.000000   0.000000   0.000000   0.000000   0.000000   0.000000
    14  C    0.000000  -0.000001  -0.000005   0.000000   0.000000   0.000000
    15  H    0.000072  -0.003389  -0.024761   0.387129  -0.024662   0.001332
    16  H    0.000000  -0.000017   0.001327  -0.025481   0.387234  -0.025632
    17  H    0.000000   0.000001   0.000018   0.001437  -0.026621   0.384274
    18  H    0.000000   0.000000   0.000001   0.000000   0.000000  -0.000017
    19  H    0.000000   0.000000  -0.000020   0.000000   0.000011  -0.003273
               7          8          9         10         11         12
     1  N   -0.000002   0.000086  -0.000766   0.000002   0.000000   0.000000
     2  C    0.000949  -0.030108   0.004625  -0.000015   0.000001  -0.000005
     3  C   -0.033312   0.454575  -0.037018   0.001425   0.000012   0.000880
     4  C   -0.008432  -0.025612   0.000747  -0.000015   0.000001   0.000031
     5  C   -0.027733  -0.008198   0.000017   0.000001  -0.000008   0.000769
     6  C    0.467656  -0.023415   0.000575   0.000052   0.000801  -0.029133
     7  C    4.817264   0.445747  -0.016648  -0.012064  -0.028882   0.465471
     8  C    0.445747   4.901887   0.388400  -0.029438  -0.013119  -0.030482
     9  C   -0.016648   0.388400   5.464877   0.439455  -0.018154  -0.005578
    10  C   -0.012064  -0.029438   0.439455   4.890760   0.451763  -0.029881
    11  C   -0.028882  -0.013119  -0.018154   0.451763   4.850850   0.529315
    12  C    0.465471  -0.030482  -0.005578  -0.029881   0.529315   4.862542
    13  N    0.000000  -0.000003   0.000004  -0.010973  -0.000035  -0.000001
    14  C    0.000005   0.001463  -0.032959   0.403312  -0.038575   0.000917
    15  H    0.000017   0.001166  -0.000017   0.000000   0.000000   0.000001
    16  H    0.001352   0.000021   0.000000   0.000000   0.000000  -0.000017
    17  H   -0.024794   0.001150  -0.000013  -0.000002   0.000015  -0.003332
    18  H    0.001465   0.000092   0.000946  -0.023023   0.381040  -0.027098
    19  H   -0.025274   0.001159  -0.000006   0.001269  -0.025347   0.386797
              13         14         15         16         17         18
     1  N    0.000000   0.000000   0.000072   0.000000   0.000000   0.000000
     2  C    0.000000  -0.000001  -0.003389  -0.000017   0.000001   0.000000
     3  C    0.000000  -0.000005  -0.024761   0.001327   0.000018   0.000001
     4  C    0.000000   0.000000   0.387129  -0.025481   0.001437   0.000000
     5  C    0.000000   0.000000  -0.024662   0.387234  -0.026621   0.000000
     6  C    0.000000   0.000000   0.001332  -0.025632   0.384274  -0.000017
     7  C    0.000000   0.000005   0.000017   0.001352  -0.024794   0.001465
     8  C   -0.000003   0.001463   0.001166   0.000021   0.001150   0.000092
     9  C    0.000004  -0.032959  -0.000017   0.000000  -0.000013   0.000946
    10  C   -0.010973   0.403312   0.000000   0.000000  -0.000002  -0.023023
    11  C   -0.000035  -0.038575   0.000000   0.000000   0.000015   0.381040
    12  C   -0.000001   0.000917   0.000001  -0.000017  -0.003332  -0.027098
    13  N    6.632218   0.660016   0.000000   0.000000   0.000000   0.000040
    14  C    0.660016   4.972429   0.000000   0.000000   0.000000  -0.003274
    15  H    0.000000   0.000000   0.606219  -0.003348  -0.000034   0.000000
    16  H    0.000000   0.000000  -0.003348   0.615764  -0.003774   0.000000
    17  H    0.000000   0.000000  -0.000034  -0.003774   0.617922  -0.000002
    18  H    0.000040  -0.003274   0.000000   0.000000  -0.000002   0.625365
    19  H    0.000000  -0.000020   0.000000  -0.000001   0.001014  -0.003857
              19
     1  N    0.000000
     2  C    0.000000
     3  C   -0.000020
     4  C    0.000000
     5  C    0.000011
     6  C   -0.003273
     7  C   -0.025274
     8  C    0.001159
     9  C   -0.000006
    10  C    0.001269
    11  C   -0.025347
    12  C    0.386797
    13  N    0.000000
    14  C   -0.000020
    15  H    0.000000
    16  H   -0.000001
    17  H    0.001014
    18  H   -0.003857
    19  H    0.627294
 Mulliken charges:
               1
     1  N   -0.238879
     2  C    0.069517
     3  C   -0.011930
     4  C   -0.096551
     5  C   -0.099788
     6  C   -0.091819
     7  C   -0.022784
     8  C   -0.035371
     9  C   -0.188487
    10  C   -0.082626
    11  C   -0.089678
    12  C   -0.121197
    13  N   -0.281266
    14  C    0.036693
    15  H    0.060276
    16  H    0.052570
    17  H    0.052741
    18  H    0.048322
    19  H    0.040255
 Sum of Mulliken charges =  -1.00000
 Mulliken charges with hydrogens summed into heavy atoms:
               1
     1  N   -0.238879
     2  C    0.069517
     3  C   -0.011930
     4  C   -0.036275
     5  C   -0.047217
     6  C   -0.039077
     7  C   -0.022784
     8  C   -0.035371
     9  C   -0.188487
    10  C   -0.082626
    11  C   -0.041356
    12  C   -0.080942
    13  N   -0.281266
    14  C    0.036693
 Electronic spatial extent (au):  <R**2>=           2783.2099
 Charge=             -1.0000 electrons
 Dipole moment (field-independent basis, Debye):
    X=             -5.5580    Y=             -6.2652    Z=              0.0000  Tot=              8.3752
 Quadrupole moment (field-independent basis, Debye-Ang):
   XX=           -108.6347   YY=            -96.0779   ZZ=            -74.1671
   XY=             -3.8084   XZ=             -0.0004   YZ=              0.0000
 Traceless Quadrupole moment (field-independent basis, Debye-Ang):
   XX=            -15.6748   YY=             -3.1180   ZZ=             18.7928
   XY=             -3.8084   XZ=             -0.0004   YZ=              0.0000
 Octapole moment (field-independent basis, Debye-Ang**2):
  XXX=           -144.1084  YYY=            -69.6905  ZZZ=              0.0000  XYY=             14.9571
  XXY=            -46.7724  XXZ=             -0.0012  XZZ=              3.0016  YZZ=              5.4339
  YYZ=              0.0003  XYZ=             -0.0004
 Hexadecapole moment (field-independent basis, Debye-Ang**3):
 XXXX=          -2971.3303 YYYY=          -1459.4534 ZZZZ=            -58.3864 XXXY=           -184.3575
 XXXZ=             -0.0067 YYYX=             98.6633 YYYZ=              0.0017 ZZZX=              0.0005
 ZZZY=             -0.0002 XXYY=           -665.0802 XXZZ=           -395.2695 YYZZ=           -214.2261
 XXYZ=             -0.0012 YYXZ=             -0.0015 ZZXY=             -1.7247
 N-N= 6.947854575223D+02 E-N=-2.712336295987D+03  KE= 5.547525196439D+02
 1\1\GINC-N040\FOpt\RB3LYP\STO-3G\C12H5N2(1-)\R2532\15-Jun-2021\0\\#N B
 3LYP/STO-3G OPT\\1Naph\\-1,1\N,1.1448460233,-0.0750132868,0.0042789523
 \C,2.343506703,-0.1431603723,0.0044133649\C,3.8142779371,-0.0652024912
 ,0.0046271098\C,4.4376569918,1.1936649904,0.0050114735\C,5.8590613916,
 1.2700516373,0.005211252\C,6.6235352467,0.107112019,0.0050343458\C,6.0
 080734264,-1.1924864625,0.0046491813\C,4.5556654549,-1.3129103724,0.00
 44215868\C,3.7532401025,-2.5637815785,0.0039950537\C,4.6660773275,-3.6
 729746342,0.003857333\C,6.1137242771,-3.6220480367,0.0040968138\C,6.77
 96394485,-2.408262506,0.0044804031\N,3.6320418321,-6.1420389219,0.0030
 713795\C,4.0945528323,-5.0350142042,0.0034257497\H,3.8358044252,2.1115
 163268,0.0051540496\H,6.3460721719,2.2542062357,0.0055043832\H,7.72115
 49891,0.1747156198,0.0051901996\H,6.6940053711,-4.5581965692,0.0039773
 08\H,7.875244048,-2.3548673933,0.0046600607\\Version=ES64L-G09RevD.01\
 State=1-A\HF=-562.5204423\RMSD=2.589e-09\RMSF=1.735e-05\Dipole=2.42990
 49,2.2255047,0.000895\Quadrupole=-2.2307035,-11.7412925,13.971996,-2.6
 819215,-0.0028633,-0.0069572\PG=C01 [X(C12H5N2)]\\@


 "WOULD YOU TELL ME PLEASE, WHICH WAY I OUGHT TO WALK FROM HERE?"
 "THAT DEPENDS A GREAT DEAL ON WHERE YOU WANT TO GO," SAID THE CAT.
 "I DON'T MUCH CARE WHERE -- ", SAID ALICE.
 "THEN IT DOESN'T MATTER WHICH WAY YOU WALK," SAID THE CAT.

                                      -- LEWIS CARROLL
 Job cpu time:       0 days  0 hours  4 minutes 49.3 seconds.
 File lengths (MBytes):  RWF=      5 Int=      0 D2E=      0 Chk=      2 Scr=      1
 Normal termination of Gaussian 09 at Tue Jun 15 11:18:27 2021.
