 Entering Gaussian System, Link 0=/usr/local/apps//g09/g09
 Input=5.com
 Output=5.out
 Initial command:
 /usr/local/apps//g09/l1.exe "/tmp/bnp.472631.sequoia/Gau-13524.inp" -scrdir="/tmp/bnp.472631.sequoia/"
 Entering Link 1 = /usr/local/apps//g09/l1.exe PID=     13532.
  
 Copyright (c) 1988,1990,1992,1993,1995,1998,2003,2009,2013,
            Gaussian, Inc.  All Rights Reserved.
  
 This is part of the Gaussian(R) 09 program.  It is based on
 the Gaussian(R) 03 system (copyright 2003, Gaussian, Inc.),
 the Gaussian(R) 98 system (copyright 1998, Gaussian, Inc.),
 the Gaussian(R) 94 system (copyright 1995, Gaussian, Inc.),
 the Gaussian 92(TM) system (copyright 1992, Gaussian, Inc.),
 the Gaussian 90(TM) system (copyright 1990, Gaussian, Inc.),
 the Gaussian 88(TM) system (copyright 1988, Gaussian, Inc.),
 the Gaussian 86(TM) system (copyright 1986, Carnegie Mellon
 University), and the Gaussian 82(TM) system (copyright 1983,
 Carnegie Mellon University). Gaussian is a federally registered
 trademark of Gaussian, Inc.
  
 This software contains proprietary and confidential information,
 including trade secrets, belonging to Gaussian, Inc.
  
 This software is provided under written license and may be
 used, copied, transmitted, or stored only in accord with that
 written license.
  
 The following legend is applicable only to US Government
 contracts under FAR:
  
                    RESTRICTED RIGHTS LEGEND
  
 Use, reproduction and disclosure by the US Government is
 subject to restrictions as set forth in subparagraphs (a)
 and (c) of the Commercial Computer Software - Restricted
 Rights clause in FAR 52.227-19.
  
 Gaussian, Inc.
 340 Quinnipiac St., Bldg. 40, Wallingford CT 06492
  
  
 ---------------------------------------------------------------
 Warning -- This program may not be used in any manner that
 competes with the business of Gaussian, Inc. or will provide
 assistance to any competitor of Gaussian, Inc.  The licensee
 of this program is prohibited from giving any competitor of
 Gaussian, Inc. access to this program.  By using this program,
 the user acknowledges that Gaussian, Inc. is engaged in the
 business of creating and licensing software in the field of
 computational chemistry and represents and warrants to the
 licensee that it is not a competitor of Gaussian, Inc. and that
 it will not use this program in any manner prohibited above.
 ---------------------------------------------------------------
  

 Cite this work as:
 Gaussian 09, Revision D.01,
 M. J. Frisch, G. W. Trucks, H. B. Schlegel, G. E. Scuseria, 
 M. A. Robb, J. R. Cheeseman, G. Scalmani, V. Barone, B. Mennucci, 
 G. A. Petersson, H. Nakatsuji, M. Caricato, X. Li, H. P. Hratchian, 
 A. F. Izmaylov, J. Bloino, G. Zheng, J. L. Sonnenberg, M. Hada, 
 M. Ehara, K. Toyota, R. Fukuda, J. Hasegawa, M. Ishida, T. Nakajima, 
 Y. Honda, O. Kitao, H. Nakai, T. Vreven, J. A. Montgomery, Jr., 
 J. E. Peralta, F. Ogliaro, M. Bearpark, J. J. Heyd, E. Brothers, 
 K. N. Kudin, V. N. Staroverov, T. Keith, R. Kobayashi, J. Normand, 
 K. Raghavachari, A. Rendell, J. C. Burant, S. S. Iyengar, J. Tomasi, 
 M. Cossi, N. Rega, J. M. Millam, M. Klene, J. E. Knox, J. B. Cross, 
 V. Bakken, C. Adamo, J. Jaramillo, R. Gomperts, R. E. Stratmann, 
 O. Yazyev, A. J. Austin, R. Cammi, C. Pomelli, J. W. Ochterski, 
 R. L. Martin, K. Morokuma, V. G. Zakrzewski, G. A. Voth, 
 P. Salvador, J. J. Dannenberg, S. Dapprich, A. D. Daniels, 
 O. Farkas, J. B. Foresman, J. V. Ortiz, J. Cioslowski, 
 and D. J. Fox, Gaussian, Inc., Wallingford CT, 2013.
 
 ******************************************
 Gaussian 09:  ES64L-G09RevD.01 24-Apr-2013
                15-Jun-2021 
 ******************************************
 -------------------
 #N B3LYP/STO-3G OPT
 -------------------
 1/14=-1,18=20,19=15,26=3,38=1/1,3;
 2/9=110,12=2,17=6,18=5,40=1/2;
 3/6=3,11=2,16=1,25=1,30=1,71=1,74=-5/1,2,3;
 4//1;
 5/5=2,38=5/2;
 6/7=2,8=2,9=2,10=2,28=1/1;
 7//1,2,3,16;
 1/14=-1,18=20,19=15,26=3/3(2);
 2/9=110/2;
 99//99;
 2/9=110/2;
 3/6=3,11=2,16=1,25=1,30=1,71=1,74=-5/1,2,3;
 4/5=5,16=3,69=1/1;
 5/5=2,38=5/2;
 7//1,2,3,16;
 1/14=-1,18=20,19=15,26=3/3(-5);
 2/9=110/2;
 6/7=2,8=2,9=2,10=2,19=2,28=1/1;
 99/9=1/99;
 -----
 2Naph
 -----
 Symbolic Z-matrix:
 Charge = -1 Multiplicity = 1
 N                     1.79097  -1.80416   0.82781 
 C                     2.913    -1.98683   0.64791 
 C                     5.24025  -1.21998   0.52678 
 C                     4.28091  -2.23673   0.40877 
 C                     4.64634  -3.53995   0.02633 
 C                     5.93902  -3.78665  -0.4106 
 C                     6.88004  -2.75616  -0.37746 
 C                     6.59281  -1.52615   0.26459 
 C                     7.69839  -0.7002    0.57515 
 C                     8.95657  -0.94851   0.03504 
 C                     9.06977  -1.92106  -0.9458 
 C                     8.09099  -2.90266  -1.0501 
 N                     4.5322    1.27433   0.87355 
 C                     4.83613   0.16338   0.75228 
 H                     3.91057  -4.34556   0.00031 
 H                     6.20734  -4.77294  -0.78558 
 H                     7.58165   0.16498   1.22465 
 H                     9.80529  -0.31358   0.2833 
 H                     9.86306  -1.86573  -1.68026 
 

 GradGradGradGradGradGradGradGradGradGradGradGradGradGradGradGradGradGrad
 Berny optimization.
 Initialization pass.
                           ----------------------------
                           !    Initial Parameters    !
                           ! (Angstroms and Degrees)  !
 --------------------------                            --------------------------
 ! Name  Definition              Value          Derivative Info.                !
 --------------------------------------------------------------------------------
 ! R1    R(1,2)                  1.1509         estimate D2E/DX2                !
 ! R2    R(2,4)                  1.411          estimate D2E/DX2                !
 ! R3    R(3,4)                  1.4029         estimate D2E/DX2                !
 ! R4    R(3,8)                  1.4113         estimate D2E/DX2                !
 ! R5    R(3,14)                 1.4587         estimate D2E/DX2                !
 ! R6    R(4,5)                  1.4065         estimate D2E/DX2                !
 ! R7    R(5,6)                  1.3866         estimate D2E/DX2                !
 ! R8    R(5,15)                 1.0913         estimate D2E/DX2                !
 ! R9    R(6,7)                  1.3959         estimate D2E/DX2                !
 ! R10   R(6,16)                 1.0887         estimate D2E/DX2                !
 ! R11   R(7,8)                  1.4169         estimate D2E/DX2                !
 ! R12   R(7,12)                 1.3929         estimate D2E/DX2                !
 ! R13   R(8,9)                  1.4145         estimate D2E/DX2                !
 ! R14   R(9,10)                 1.3915         estimate D2E/DX2                !
 ! R15   R(9,17)                 1.0881         estimate D2E/DX2                !
 ! R16   R(10,11)                1.3859         estimate D2E/DX2                !
 ! R17   R(10,18)                1.0886         estimate D2E/DX2                !
 ! R18   R(11,12)                1.3901         estimate D2E/DX2                !
 ! R19   R(11,19)                1.0825         estimate D2E/DX2                !
 ! R20   R(13,14)                1.1581         estimate D2E/DX2                !
 ! A1    A(4,3,8)              118.849          estimate D2E/DX2                !
 ! A2    A(4,3,14)             120.7224         estimate D2E/DX2                !
 ! A3    A(8,3,14)             119.9964         estimate D2E/DX2                !
 ! A4    A(2,4,3)              121.3559         estimate D2E/DX2                !
 ! A5    A(2,4,5)              117.5219         estimate D2E/DX2                !
 ! A6    A(3,4,5)              121.1147         estimate D2E/DX2                !
 ! A7    A(4,5,6)              119.5209         estimate D2E/DX2                !
 ! A8    A(4,5,15)             121.0176         estimate D2E/DX2                !
 ! A9    A(6,5,15)             119.3179         estimate D2E/DX2                !
 ! A10   A(5,6,7)              119.3163         estimate D2E/DX2                !
 ! A11   A(5,6,16)             119.963          estimate D2E/DX2                !
 ! A12   A(7,6,16)             120.7167         estimate D2E/DX2                !
 ! A13   A(6,7,8)              120.994          estimate D2E/DX2                !
 ! A14   A(6,7,12)             119.7982         estimate D2E/DX2                !
 ! A15   A(8,7,12)             119.1003         estimate D2E/DX2                !
 ! A16   A(3,8,7)              117.8248         estimate D2E/DX2                !
 ! A17   A(3,8,9)              125.561          estimate D2E/DX2                !
 ! A18   A(7,8,9)              116.6103         estimate D2E/DX2                !
 ! A19   A(8,9,10)             121.1491         estimate D2E/DX2                !
 ! A20   A(8,9,17)             120.761          estimate D2E/DX2                !
 ! A21   A(10,9,17)            118.0709         estimate D2E/DX2                !
 ! A22   A(9,10,11)            118.2792         estimate D2E/DX2                !
 ! A23   A(9,10,18)            120.8185         estimate D2E/DX2                !
 ! A24   A(11,10,18)           120.4646         estimate D2E/DX2                !
 ! A25   A(10,11,12)           119.4137         estimate D2E/DX2                !
 ! A26   A(10,11,19)           120.2765         estimate D2E/DX2                !
 ! A27   A(12,11,19)           120.0776         estimate D2E/DX2                !
 ! A28   A(7,12,11)            120.1064         estimate D2E/DX2                !
 ! A29   L(1,2,4,13,-1)        181.1701         estimate D2E/DX2                !
 ! A30   L(3,14,13,1,-1)       181.1505         estimate D2E/DX2                !
 ! A31   L(1,2,4,13,-2)        180.6637         estimate D2E/DX2                !
 ! A32   L(3,14,13,1,-2)       182.9423         estimate D2E/DX2                !
 ! D1    D(8,3,4,2)           -179.4825         estimate D2E/DX2                !
 ! D2    D(8,3,4,5)             -0.5005         estimate D2E/DX2                !
 ! D3    D(14,3,4,2)            -7.0275         estimate D2E/DX2                !
 ! D4    D(14,3,4,5)           171.9545         estimate D2E/DX2                !
 ! D5    D(4,3,8,7)             13.2921         estimate D2E/DX2                !
 ! D6    D(4,3,8,9)           -167.4538         estimate D2E/DX2                !
 ! D7    D(14,3,8,7)          -159.219          estimate D2E/DX2                !
 ! D8    D(14,3,8,9)            20.0351         estimate D2E/DX2                !
 ! D9    D(2,4,5,6)            170.4536         estimate D2E/DX2                !
 ! D10   D(2,4,5,15)            -5.1605         estimate D2E/DX2                !
 ! D11   D(3,4,5,6)             -8.5662         estimate D2E/DX2                !
 ! D12   D(3,4,5,15)           175.8198         estimate D2E/DX2                !
 ! D13   D(4,5,6,7)              4.3029         estimate D2E/DX2                !
 ! D14   D(4,5,6,16)          -174.9712         estimate D2E/DX2                !
 ! D15   D(15,5,6,7)           179.9921         estimate D2E/DX2                !
 ! D16   D(15,5,6,16)            0.718          estimate D2E/DX2                !
 ! D17   D(5,6,7,8)              8.9503         estimate D2E/DX2                !
 ! D18   D(5,6,7,12)          -167.2474         estimate D2E/DX2                !
 ! D19   D(16,6,7,8)          -171.7812         estimate D2E/DX2                !
 ! D20   D(16,6,7,12)           12.0211         estimate D2E/DX2                !
 ! D21   D(6,7,8,3)            -17.79           estimate D2E/DX2                !
 ! D22   D(6,7,8,9)            162.8886         estimate D2E/DX2                !
 ! D23   D(12,7,8,3)           158.4337         estimate D2E/DX2                !
 ! D24   D(12,7,8,9)           -20.8876         estimate D2E/DX2                !
 ! D25   D(6,7,12,11)         -175.5481         estimate D2E/DX2                !
 ! D26   D(8,7,12,11)            8.1821         estimate D2E/DX2                !
 ! D27   D(3,8,9,10)          -166.3301         estimate D2E/DX2                !
 ! D28   D(3,8,9,17)            12.0509         estimate D2E/DX2                !
 ! D29   D(7,8,9,10)            12.9321         estimate D2E/DX2                !
 ! D30   D(7,8,9,17)          -168.6869         estimate D2E/DX2                !
 ! D31   D(8,9,10,11)            7.9965         estimate D2E/DX2                !
 ! D32   D(8,9,10,18)         -179.5605         estimate D2E/DX2                !
 ! D33   D(17,9,10,11)        -170.4268         estimate D2E/DX2                !
 ! D34   D(17,9,10,18)           2.0162         estimate D2E/DX2                !
 ! D35   D(9,10,11,12)         -21.4149         estimate D2E/DX2                !
 ! D36   D(9,10,11,19)         153.0539         estimate D2E/DX2                !
 ! D37   D(18,10,11,12)        166.1143         estimate D2E/DX2                !
 ! D38   D(18,10,11,19)        -19.4169         estimate D2E/DX2                !
 ! D39   D(10,11,12,7)          13.4504         estimate D2E/DX2                !
 ! D40   D(19,11,12,7)        -161.0297         estimate D2E/DX2                !
 --------------------------------------------------------------------------------
 Trust Radius=3.00D-01 FncErr=1.00D-07 GrdErr=1.00D-06
 Number of steps in this run=    102 maximum allowed number of steps=    114.
 GradGradGradGradGradGradGradGradGradGradGradGradGradGradGradGradGradGrad

                          Input orientation:                          
 ---------------------------------------------------------------------
 Center     Atomic      Atomic             Coordinates (Angstroms)
 Number     Number       Type             X           Y           Z
 ---------------------------------------------------------------------
      1          7           0        1.790970   -1.804160    0.827810
      2          6           0        2.913000   -1.986830    0.647910
      3          6           0        5.240250   -1.219980    0.526780
      4          6           0        4.280910   -2.236730    0.408770
      5          6           0        4.646340   -3.539950    0.026330
      6          6           0        5.939020   -3.786650   -0.410600
      7          6           0        6.880040   -2.756160   -0.377460
      8          6           0        6.592810   -1.526150    0.264590
      9          6           0        7.698390   -0.700200    0.575150
     10          6           0        8.956570   -0.948510    0.035040
     11          6           0        9.069770   -1.921060   -0.945800
     12          6           0        8.090990   -2.902660   -1.050100
     13          7           0        4.532200    1.274330    0.873550
     14          6           0        4.836130    0.163380    0.752280
     15          1           0        3.910570   -4.345560    0.000310
     16          1           0        6.207340   -4.772940   -0.785580
     17          1           0        7.581650    0.164980    1.224650
     18          1           0        9.805290   -0.313580    0.283300
     19          1           0        9.863060   -1.865730   -1.680260
 ---------------------------------------------------------------------
                    Distance matrix (angstroms):
                    1          2          3          4          5
     1  N    0.000000
     2  C    1.150949   0.000000
     3  C    3.511327   2.453329   0.000000
     4  C    2.561740   1.410963   1.402869   0.000000
     5  C    3.436346   2.408944   2.446516   1.406479   0.000000
     6  C    4.761328   3.676492   2.820418   2.413079   1.386647
     7  C    5.315789   4.169012   2.422067   2.764678   2.401414
     8  C    4.842744   3.728292   1.411348   2.422931   2.810855
     9  C    6.014996   4.955872   2.512959   3.750703   4.204806
    10  C    7.259920   6.162666   3.758529   4.864255   5.029286
    11  C    7.492682   6.360036   4.162359   4.986751   4.809634
    12  C    6.665096   5.525718   3.666699   4.133821   3.664758
    13  N    4.122322   3.647998   2.615945   3.550593   4.889591
    14  C    3.626282   2.886646   1.458715   2.487327   3.778581
    15  H    3.411184   2.641617   3.437218   2.179714   1.091349
    16  H    5.560666   4.546425   3.909102   3.401465   2.148530
    17  H    6.129190   5.172930   2.808432   4.162782   4.876323
    18  H    8.169923   7.101857   4.660519   5.850899   6.090178
    19  H    8.452978   7.330646   5.163176   5.971774   5.738434
                    6          7          8          9         10
     6  C    0.000000
     7  C    1.395896   0.000000
     8  C    2.448098   1.416917   0.000000
     9  C    3.686904   2.409177   1.414549   0.000000
    10  C    4.166442   2.783834   2.444120   1.391544   0.000000
    11  C    3.683539   2.411497   2.785019   2.384213   1.385899
    12  C    2.412752   1.392949   2.422340   2.765213   2.396969
    13  N    5.407560   4.829309   3.529821   3.743337   5.021869
    14  C    4.262792   3.738662   2.485614   2.994942   4.327674
    15  H    2.143790   3.389197   3.900427   5.288352   6.083031
    16  H    1.088749   2.164830   3.434107   4.545550   4.780999
    17  H    4.581229   3.404713   2.181614   1.088124   2.132003
    18  H    5.243258   3.867801   3.433759   2.161869   1.088621
    19  H    4.549732   3.374694   3.819986   3.336335   2.145989
                   11         12         13         14         15
    11  C    0.000000
    12  C    1.390118   0.000000
    13  N    5.840385   5.814866   0.000000
    14  C    5.015184   4.821129   1.158141   0.000000
    15  H    5.778466   4.545463   5.721201   4.663975   0.000000
    16  H    4.043810   2.667594   6.490630   5.349064   2.464839
    17  H    3.358112   3.852834   3.263905   2.785860   5.943131
    18  H    2.153060   3.379366   5.538532   5.013979   7.147354
    19  H    1.082498   2.147687   6.693280   5.941764   6.663783
                   16         17         18         19
    16  H    0.000000
    17  H    5.505707   0.000000
    18  H    5.828691   2.461653   0.000000
    19  H    4.755692   4.215106   2.503612   0.000000
 Stoichiometry    C12H5N2(1-)
 Framework group  C1[X(C12H5N2)]
 Deg. of freedom    51
 Full point group                 C1      NOp   1
 Largest Abelian subgroup         C1      NOp   1
 Largest concise Abelian subgroup C1      NOp   1
                         Standard orientation:                         
 ---------------------------------------------------------------------
 Center     Atomic      Atomic             Coordinates (Angstroms)
 Number     Number       Type             X           Y           Z
 ---------------------------------------------------------------------
      1          7           0        4.101276   -0.361313    0.083509
      2          6           0        2.958041   -0.461915   -0.003535
      3          6           0        0.701483    0.494679   -0.111680
      4          6           0        1.558695   -0.615748   -0.098303
      5          6           0        1.051474   -1.926235   -0.157737
      6          6           0       -0.315129   -2.135446   -0.050883
      7          6           0       -1.171253   -1.035394    0.023025
      8          6           0       -0.690709    0.279248   -0.197083
      9          6           0       -1.661354    1.271070   -0.471098
     10          6           0       -3.015690    1.030329   -0.260830
     11          6           0       -3.382270   -0.141869    0.381264
     12          6           0       -2.501313   -1.217117    0.394809
     13          7           0        1.601024    2.903896    0.367557
     14          6           0        1.218404    1.838063    0.124879
     15          1           0        1.720849   -2.786267   -0.215391
     16          1           0       -0.708646   -3.149903   -0.013528
     17          1           0       -1.365724    2.255341   -0.828628
     18          1           0       -3.758738    1.795069   -0.480253
     19          1           0       -4.306115   -0.190314    0.943372
 ---------------------------------------------------------------------
 Rotational constants (GHZ):      1.3591237      0.5802862      0.4147965
 Standard basis: STO-3G (5D, 7F)
 There are    75 symmetry adapted cartesian basis functions of A   symmetry.
 There are    75 symmetry adapted basis functions of A   symmetry.
    75 basis functions,   225 primitive gaussians,    75 cartesian basis functions
    46 alpha electrons       46 beta electrons
       nuclear repulsion energy       719.7662934808 Hartrees.
 NAtoms=   19 NActive=   19 NUniq=   19 SFac= 1.00D+00 NAtFMM=   60 NAOKFM=F Big=F
 Integral buffers will be    131072 words long.
 Raffenetti 2 integral format.
 Two-electron integral symmetry is turned on.
 One-electron integrals computed using PRISM.
 NBasis=    75 RedAO= T EigKep=  1.49D-01  NBF=    75
 NBsUse=    75 1.00D-06 EigRej= -1.00D+00 NBFU=    75
 ExpMin= 1.69D-01 ExpMax= 9.91D+01 ExpMxC= 9.91D+01 IAcc=1 IRadAn=         1 AccDes= 0.00D+00
 Harris functional with IExCor=  402 and IRadAn=       1 diagonalized for initial guess.
 HarFok:  IExCor=  402 AccDes= 0.00D+00 IRadAn=         1 IDoV= 1 UseB2=F ITyADJ=14
 ICtDFT=  3500011 ScaDFX=  1.000000  1.000000  1.000000  1.000000
 FoFCou: FMM=F IPFlag=           0 FMFlag=      100000 FMFlg1=           0
         NFxFlg=           0 DoJE=T BraDBF=F KetDBF=T FulRan=T
         wScrn=  0.000000 ICntrl=     500 IOpCl=  0 I1Cent=   200000004 NGrid=           0
         NMat0=    1 NMatS0=      1 NMatT0=    0 NMatD0=    1 NMtDS0=    0 NMtDT0=    0
 Petite list used in FoFCou.
 Keep R1 ints in memory in canonical form, NReq=4993994.
 Requested convergence on RMS density matrix=1.00D-08 within 128 cycles.
 Requested convergence on MAX density matrix=1.00D-06.
 Requested convergence on             energy=1.00D-06.
 No special actions if energy rises.
 Integral accuracy reduced to 1.0D-05 until final iterations.
 Initial convergence to 1.0D-05 achieved.  Increase integral accuracy.
 SCF Done:  E(RB3LYP) =  -562.462225842     A.U. after   27 cycles
            NFock= 27  Conv=0.51D-08     -V/T= 2.0127

 **********************************************************************

            Population analysis using the SCF density.

 **********************************************************************

 Orbital symmetries:
       Occupied  (A) (A) (A) (A) (A) (A) (A) (A) (A) (A) (A) (A)
                 (A) (A) (A) (A) (A) (A) (A) (A) (A) (A) (A) (A)
                 (A) (A) (A) (A) (A) (A) (A) (A) (A) (A) (A) (A)
                 (A) (A) (A) (A) (A) (A) (A) (A) (A) (A)
       Virtual   (A) (A) (A) (A) (A) (A) (A) (A) (A) (A) (A) (A)
                 (A) (A) (A) (A) (A) (A) (A) (A) (A) (A) (A) (A)
                 (A) (A) (A) (A) (A)
 The electronic state is 1-A.
 Alpha  occ. eigenvalues --  -13.99381 -13.99227  -9.90866  -9.90728  -9.90104
 Alpha  occ. eigenvalues --   -9.89712  -9.86203  -9.86082  -9.85114  -9.82638
 Alpha  occ. eigenvalues --   -9.82448  -9.82313  -9.78690  -9.67163  -0.75053
 Alpha  occ. eigenvalues --   -0.74041  -0.68373  -0.62132  -0.58782  -0.55349
 Alpha  occ. eigenvalues --   -0.49872  -0.46568  -0.42432  -0.39939  -0.33974
 Alpha  occ. eigenvalues --   -0.33124  -0.30416  -0.27868  -0.25385  -0.23164
 Alpha  occ. eigenvalues --   -0.22187  -0.20785  -0.19144  -0.17710  -0.16252
 Alpha  occ. eigenvalues --   -0.15995  -0.15362  -0.15303  -0.14678  -0.13907
 Alpha  occ. eigenvalues --   -0.11643  -0.09607  -0.06354  -0.02784   0.02728
 Alpha  occ. eigenvalues --    0.12217
 Alpha virt. eigenvalues --    0.16053   0.22514   0.27397   0.28028   0.28747
 Alpha virt. eigenvalues --    0.31174   0.33162   0.39968   0.43396   0.46984
 Alpha virt. eigenvalues --    0.50991   0.52743   0.56230   0.59237   0.62304
 Alpha virt. eigenvalues --    0.64292   0.65564   0.66285   0.72225   0.73259
 Alpha virt. eigenvalues --    0.75247   0.79366   0.83622   0.86931   0.88529
 Alpha virt. eigenvalues --    0.99386   1.01042   1.12452   1.18006
          Condensed to atoms (all electrons):
               1          2          3          4          5          6
     1  N    6.569390   0.692511  -0.000161  -0.011586  -0.000277  -0.000001
     2  C    0.692511   4.876652  -0.031168   0.437168  -0.034523   0.001099
     3  C   -0.000161  -0.031168   4.768705   0.500652  -0.029204  -0.009736
     4  C   -0.011586   0.437168   0.500652   4.757453   0.475636  -0.030242
     5  C   -0.000277  -0.034523  -0.029204   0.475636   4.853293   0.517028
     6  C   -0.000001   0.001099  -0.009736  -0.030242   0.517028   4.823711
     7  C    0.000000   0.000040  -0.028265  -0.012124  -0.032933   0.480467
     8  C   -0.000001   0.000993   0.465719  -0.032876  -0.008845  -0.034376
     9  C    0.000000  -0.000007  -0.028727   0.000776   0.000062   0.000948
    10  C    0.000000   0.000000   0.000805  -0.000007   0.000000   0.000001
    11  C    0.000000   0.000000   0.000074   0.000001  -0.000018   0.001467
    12  C    0.000000   0.000000   0.001174   0.000059   0.001025  -0.042208
    13  N   -0.000009  -0.000032  -0.010778  -0.000089  -0.000001   0.000000
    14  C   -0.000035  -0.003028   0.416270  -0.030605   0.000867  -0.000003
    15  H    0.000036  -0.003976   0.001263  -0.025088   0.390562  -0.026324
    16  H    0.000000  -0.000022   0.000019   0.001494  -0.026813   0.387910
    17  H    0.000000   0.000000  -0.003188   0.000009  -0.000001  -0.000022
    18  H    0.000000   0.000000  -0.000013   0.000000   0.000000   0.000002
    19  H    0.000000   0.000000   0.000003   0.000000   0.000000  -0.000006
               7          8          9         10         11         12
     1  N    0.000000  -0.000001   0.000000   0.000000   0.000000   0.000000
     2  C    0.000040   0.000993  -0.000007   0.000000   0.000000   0.000000
     3  C   -0.028265   0.465719  -0.028727   0.000805   0.000074   0.001174
     4  C   -0.012124  -0.032876   0.000776  -0.000007   0.000001   0.000059
     5  C   -0.032933  -0.008845   0.000062   0.000000  -0.000018   0.001025
     6  C    0.480467  -0.034376   0.000948   0.000001   0.001467  -0.042208
     7  C    4.837166   0.441642  -0.035320  -0.011884  -0.031250   0.463630
     8  C    0.441642   4.824754   0.488862  -0.028627  -0.013276  -0.029197
     9  C   -0.035320   0.488862   4.860535   0.521226  -0.035863  -0.014610
    10  C   -0.011884  -0.028627   0.521226   4.854053   0.475470  -0.026977
    11  C   -0.031250  -0.013276  -0.035863   0.475470   4.891048   0.500846
    12  C    0.463630  -0.029197  -0.014610  -0.026977   0.500846   5.372917
    13  N   -0.000002  -0.000126  -0.000070   0.000000   0.000000   0.000000
    14  C    0.000972  -0.028240  -0.003470   0.000011  -0.000001  -0.000011
    15  H    0.001566   0.000023   0.000001   0.000000   0.000000  -0.000027
    16  H   -0.024346   0.001544  -0.000017   0.000000   0.000026  -0.001721
    17  H    0.001379  -0.025194   0.388156  -0.027539   0.001574   0.000133
    18  H    0.000099   0.001378  -0.027026   0.383190  -0.026789   0.001659
    19  H    0.002038   0.000043   0.001437  -0.033895   0.387404  -0.034440
              13         14         15         16         17         18
     1  N   -0.000009  -0.000035   0.000036   0.000000   0.000000   0.000000
     2  C   -0.000032  -0.003028  -0.003976  -0.000022   0.000000   0.000000
     3  C   -0.010778   0.416270   0.001263   0.000019  -0.003188  -0.000013
     4  C   -0.000089  -0.030605  -0.025088   0.001494   0.000009   0.000000
     5  C   -0.000001   0.000867   0.390562  -0.026813  -0.000001   0.000000
     6  C    0.000000  -0.000003  -0.026324   0.387910  -0.000022   0.000002
     7  C   -0.000002   0.000972   0.001566  -0.024346   0.001379   0.000099
     8  C   -0.000126  -0.028240   0.000023   0.001544  -0.025194   0.001378
     9  C   -0.000070  -0.003470   0.000001  -0.000017   0.388156  -0.027026
    10  C    0.000000   0.000011   0.000000   0.000000  -0.027539   0.383190
    11  C    0.000000  -0.000001   0.000000   0.000026   0.001574  -0.026789
    12  C    0.000000  -0.000011  -0.000027  -0.001721   0.000133   0.001659
    13  N    6.566546   0.688096   0.000000   0.000000  -0.000086   0.000000
    14  C    0.688096   4.893412  -0.000018   0.000001   0.000896  -0.000001
    15  H    0.000000  -0.000018   0.609620  -0.003994   0.000000   0.000000
    16  H    0.000000   0.000001  -0.003994   0.597828   0.000001   0.000000
    17  H   -0.000086   0.000896   0.000000   0.000001   0.622235  -0.003953
    18  H    0.000000  -0.000001   0.000000   0.000000  -0.003953   0.639209
    19  H    0.000000   0.000000   0.000000  -0.000005  -0.000044  -0.002817
              19
     1  N    0.000000
     2  C    0.000000
     3  C    0.000003
     4  C    0.000000
     5  C    0.000000
     6  C   -0.000006
     7  C    0.002038
     8  C    0.000043
     9  C    0.001437
    10  C   -0.033895
    11  C    0.387404
    12  C   -0.034440
    13  N    0.000000
    14  C    0.000000
    15  H    0.000000
    16  H   -0.000005
    17  H   -0.000044
    18  H   -0.002817
    19  H    0.658890
 Mulliken charges:
               1
     1  N   -0.249868
     2  C    0.064292
     3  C   -0.013443
     4  C   -0.030630
     5  C   -0.105860
     6  C   -0.069716
     7  C   -0.052875
     8  C   -0.024200
     9  C   -0.116890
    10  C   -0.105828
    11  C   -0.150715
    12  C   -0.192253
    13  N   -0.243449
    14  C    0.064887
    15  H    0.056357
    16  H    0.068096
    17  H    0.045642
    18  H    0.035061
    19  H    0.021391
 Sum of Mulliken charges =  -1.00000
 Mulliken charges with hydrogens summed into heavy atoms:
               1
     1  N   -0.249868
     2  C    0.064292
     3  C   -0.013443
     4  C   -0.030630
     5  C   -0.049503
     6  C   -0.001620
     7  C   -0.052875
     8  C   -0.024200
     9  C   -0.071248
    10  C   -0.070767
    11  C   -0.129324
    12  C   -0.192253
    13  N   -0.243449
    14  C    0.064887
 Electronic spatial extent (au):  <R**2>=           2524.1023
 Charge=             -1.0000 electrons
 Dipole moment (field-independent basis, Debye):
    X=              0.2984    Y=             -0.8378    Z=             -1.2590  Tot=              1.5415
 Quadrupole moment (field-independent basis, Debye-Ang):
   XX=           -117.9745   YY=            -89.0882   ZZ=            -74.8161
   XY=            -10.6333   XZ=              0.8573   YZ=             -0.4175
 Traceless Quadrupole moment (field-independent basis, Debye-Ang):
   XX=            -24.0149   YY=              4.8714   ZZ=             19.1435
   XY=            -10.6333   XZ=              0.8573   YZ=             -0.4175
 Octapole moment (field-independent basis, Debye-Ang**2):
  XXX=            -46.2259  YYY=            -33.5427  ZZZ=              1.2686  XYY=             -3.9578
  XXY=             14.3982  XXZ=            -11.2095  XZZ=              7.0975  YZZ=              2.9060
  YYZ=             -9.5022  XYZ=             -6.8149
 Hexadecapole moment (field-independent basis, Debye-Ang**3):
 XXXX=          -2839.7465 YYYY=          -1084.1854 ZZZZ=            -93.0313 XXXY=            -38.7399
 XXXZ=              3.5138 YYYX=            -96.7995 YYYZ=            -15.3497 ZZZX=              2.6804
 ZZZY=              3.0501 XXYY=           -591.7249 XXZZ=           -384.1298 YYZZ=           -181.4814
 XXYZ=              6.9306 YYXZ=             -1.1813 ZZXY=             -0.4652
 N-N= 7.197662934808D+02 E-N=-2.761839048969D+03  KE= 5.553920961740D+02
 Calling FoFJK, ICntrl=      2127 FMM=F ISym2X=0 I1Cent= 0 IOpClX= 0 NMat=1 NMatS=1 NMatT=0.
 ***** Axes restored to original set *****
 -------------------------------------------------------------------
 Center     Atomic                   Forces (Hartrees/Bohr)
 Number     Number              X              Y              Z
 -------------------------------------------------------------------
      1        7          -0.130900762    0.020577282    0.021867017
      2        6           0.090221049   -0.009173474   -0.014454697
      3        6          -0.014943716    0.017634462    0.002930248
      4        6           0.005026908    0.008526566    0.004365974
      5        6           0.010329223   -0.034770563   -0.010196210
      6        6          -0.031238793   -0.013108264    0.014643479
      7        6           0.028378202   -0.010263062   -0.008010089
      8        6           0.002835270    0.025319355    0.011470905
      9        6           0.011692682    0.017980464    0.009592585
     10        6          -0.003252504    0.026056564    0.018939202
     11        6          -0.018476459   -0.030770803   -0.017852340
     12        6           0.040977226   -0.029107545   -0.041136177
     13        7          -0.028514154    0.107769328    0.012685962
     14        6           0.024541890   -0.105057114   -0.005809855
     15        1          -0.006880986    0.001051773    0.000632021
     16        1           0.004079172   -0.005972679   -0.005435079
     17        1          -0.005933406    0.005526175    0.004214481
     18        1           0.005298549    0.007936957    0.008080039
     19        1           0.016760611   -0.000155420   -0.006527466
 -------------------------------------------------------------------
 Cartesian Forces:  Max     0.130900762 RMS     0.033520837

 GradGradGradGradGradGradGradGradGradGradGradGradGradGradGradGradGradGrad
 Berny optimization.
 FormGI is forming the generalized inverse of G from B-inverse, IUseBI=4.
 Internal  Forces:  Max     0.134291548 RMS     0.023432505
 Search for a local minimum.
 Step number   1 out of a maximum of  102
 All quantities printed in internal units (Hartrees-Bohrs-Radians)
 Mixed Optimization -- RFO/linear search
 Second derivative matrix not updated -- first step.
 ITU=  0
     Eigenvalues ---    0.01944   0.01944   0.01959   0.01998   0.02028
     Eigenvalues ---    0.02043   0.02059   0.02082   0.02135   0.02152
     Eigenvalues ---    0.02175   0.02181   0.02211   0.02260   0.02268
     Eigenvalues ---    0.02450   0.04891   0.04891   0.15853   0.15954
     Eigenvalues ---    0.15955   0.15995   0.15999   0.21824   0.22380
     Eigenvalues ---    0.23144   0.24222   0.24543   0.24728   0.24847
     Eigenvalues ---    0.24997   0.34657   0.34958   0.34973   0.35030
     Eigenvalues ---    0.35694   0.37126   0.37926   0.41215   0.41530
     Eigenvalues ---    0.42853   0.43851   0.44414   0.44522   0.45820
     Eigenvalues ---    0.46137   0.46903   0.47140   0.47454   1.29018
     Eigenvalues ---    1.33905
 RFO step:  Lambda=-6.64297951D-02 EMin= 1.94374033D-02
 Linear search not attempted -- first point.
 Maximum step size (   0.300) exceeded in Quadratic search.
    -- Step size scaled by   0.899
 Iteration  1 RMS(Cart)=  0.06513133 RMS(Int)=  0.00108236
 Iteration  2 RMS(Cart)=  0.00160672 RMS(Int)=  0.00025102
 Iteration  3 RMS(Cart)=  0.00000223 RMS(Int)=  0.00025101
 Iteration  4 RMS(Cart)=  0.00000000 RMS(Int)=  0.00025101
 Variable       Old X    -DE/DX   Delta X   Delta X   Delta X     New X
                                 (Linear)    (Quad)   (Total)
    R1        2.17498   0.13429   0.00000   0.08590   0.08590   2.26088
    R2        2.66633   0.04271   0.00000   0.07605   0.07605   2.74238
    R3        2.65104   0.02037   0.00000   0.03409   0.03386   2.68490
    R4        2.66706   0.03833   0.00000   0.06958   0.06962   2.73668
    R5        2.75657   0.00474   0.00000   0.00974   0.00974   2.76631
    R6        2.65786   0.03740   0.00000   0.06319   0.06292   2.72078
    R7        2.62038   0.01404   0.00000   0.02209   0.02207   2.64245
    R8        2.06235   0.00385   0.00000   0.00838   0.00838   2.07073
    R9        2.63786   0.04353   0.00000   0.07521   0.07545   2.71331
   R10        2.05744   0.00829   0.00000   0.01791   0.01791   2.07535
   R11        2.67759   0.05616   0.00000   0.10644   0.10659   2.78418
   R12        2.63229   0.04908   0.00000   0.08380   0.08386   2.71616
   R13        2.67311   0.01448   0.00000   0.02554   0.02527   2.69838
   R14        2.62964   0.00840   0.00000   0.01233   0.01223   2.64187
   R15        2.05626   0.00755   0.00000   0.01628   0.01628   2.07254
   R16        2.61897   0.05794   0.00000   0.09450   0.09470   2.71367
   R17        2.05719   0.01060   0.00000   0.02291   0.02291   2.08010
   R18        2.62694   0.00996   0.00000   0.01626   0.01646   2.64340
   R19        2.04562   0.01670   0.00000   0.03547   0.03547   2.08110
   R20        2.18857   0.11219   0.00000   0.07435   0.07435   2.26292
    A1        2.07431   0.00424   0.00000   0.01437   0.01397   2.08828
    A2        2.10700  -0.00549   0.00000  -0.01539  -0.01566   2.09135
    A3        2.09433   0.00183   0.00000   0.00600   0.00582   2.10015
    A4        2.11806  -0.00237   0.00000  -0.00429  -0.00407   2.11399
    A5        2.05114   0.00681   0.00000   0.02183   0.02204   2.07319
    A6        2.11385  -0.00442   0.00000  -0.01743  -0.01789   2.09596
    A7        2.08603   0.00556   0.00000   0.01187   0.01157   2.09760
    A8        2.11216  -0.00859   0.00000  -0.02901  -0.02889   2.08326
    A9        2.08249   0.00310   0.00000   0.01782   0.01796   2.10045
   A10        2.08246   0.01231   0.00000   0.03944   0.03963   2.12209
   A11        2.09375  -0.00324   0.00000  -0.00820  -0.00836   2.08539
   A12        2.10690  -0.00909   0.00000  -0.03142  -0.03157   2.07533
   A13        2.11174  -0.02179   0.00000  -0.06021  -0.05983   2.05191
   A14        2.09087   0.00954   0.00000   0.02166   0.02147   2.11235
   A15        2.07869   0.01221   0.00000   0.03884   0.03865   2.11734
   A16        2.05643   0.00423   0.00000   0.01696   0.01739   2.07382
   A17        2.19145  -0.00498   0.00000  -0.01877  -0.01883   2.17262
   A18        2.03523   0.00076   0.00000   0.00203   0.00149   2.03672
   A19        2.11445  -0.00655   0.00000  -0.02421  -0.02459   2.08986
   A20        2.10768  -0.00197   0.00000  -0.00840  -0.00826   2.09942
   A21        2.06073   0.00855   0.00000   0.03297   0.03311   2.09384
   A22        2.06436   0.00921   0.00000   0.02480   0.02477   2.08913
   A23        2.10868  -0.01087   0.00000  -0.03557  -0.03577   2.07291
   A24        2.10250   0.00208   0.00000   0.01428   0.01409   2.11660
   A25        2.08416   0.01274   0.00000   0.03962   0.03986   2.12402
   A26        2.09922  -0.00937   0.00000  -0.03051  -0.03088   2.06834
   A27        2.09575  -0.00303   0.00000  -0.00627  -0.00665   2.08910
   A28        2.09625  -0.02661   0.00000  -0.07184  -0.07136   2.02489
   A29        3.16201   0.00136   0.00000   0.01421   0.01421   3.17623
   A30        3.16167   0.00193   0.00000   0.01505   0.01505   3.17672
   A31        3.15318  -0.00196   0.00000  -0.02055  -0.02055   3.13263
   A32        3.19294  -0.00206   0.00000  -0.01603  -0.01603   3.17692
    D1       -3.13256  -0.00127   0.00000  -0.00626  -0.00607  -3.13863
    D2       -0.00874   0.00032   0.00000   0.00193   0.00182  -0.00692
    D3       -0.12265   0.00392   0.00000   0.03748   0.03723  -0.08542
    D4        3.00117   0.00551   0.00000   0.04567   0.04512   3.04629
    D5        0.23199   0.00026   0.00000  -0.01239  -0.01268   0.21931
    D6       -2.92262   0.00191   0.00000   0.00816   0.00787  -2.91475
    D7       -2.77890  -0.00432   0.00000  -0.05415  -0.05455  -2.83345
    D8        0.34968  -0.00268   0.00000  -0.03360  -0.03400   0.31568
    D9        2.97498   0.00213   0.00000   0.02337   0.02323   2.99821
   D10       -0.09007   0.00091   0.00000   0.01208   0.01215  -0.07792
   D11       -0.14951   0.00069   0.00000   0.01573   0.01577  -0.13374
   D12        3.06863  -0.00053   0.00000   0.00445   0.00469   3.07332
   D13        0.07510  -0.00276   0.00000  -0.02054  -0.02046   0.05464
   D14       -3.05382  -0.00032   0.00000  -0.00355  -0.00352  -3.05734
   D15        3.14145  -0.00209   0.00000  -0.01152  -0.01134   3.13011
   D16        0.01253   0.00036   0.00000   0.00548   0.00560   0.01814
   D17        0.15621   0.00044   0.00000   0.00093   0.00080   0.15701
   D18       -2.91902   0.00049   0.00000  -0.00563  -0.00587  -2.92489
   D19       -2.99815  -0.00198   0.00000  -0.01602  -0.01588  -3.01403
   D20        0.20981  -0.00193   0.00000  -0.02258  -0.02255   0.18726
   D21       -0.31049   0.00189   0.00000   0.01887   0.01887  -0.29162
   D22        2.84294   0.00044   0.00000   0.00034   0.00008   2.84302
   D23        2.76519   0.00175   0.00000   0.02477   0.02490   2.79009
   D24       -0.36456   0.00030   0.00000   0.00625   0.00611  -0.35845
   D25       -3.06389  -0.00201   0.00000   0.00848   0.00919  -3.05470
   D26        0.14280  -0.00067   0.00000   0.00581   0.00603   0.14884
   D27       -2.90301  -0.00531   0.00000  -0.03974  -0.03936  -2.94237
   D28        0.21033  -0.00366   0.00000  -0.02390  -0.02372   0.18660
   D29        0.22571  -0.00366   0.00000  -0.01931  -0.01910   0.20661
   D30       -2.94414  -0.00201   0.00000  -0.00347  -0.00346  -2.94760
   D31        0.13956  -0.00235   0.00000  -0.00423  -0.00375   0.13581
   D32       -3.13392   0.00144   0.00000   0.02713   0.02712  -3.10680
   D33       -2.97451  -0.00379   0.00000  -0.01903  -0.01869  -2.99320
   D34        0.03519  -0.00001   0.00000   0.01233   0.01218   0.04737
   D35       -0.37376  -0.00078   0.00000   0.00810   0.00852  -0.36524
   D36        2.67129   0.00311   0.00000   0.04147   0.04181   2.71310
   D37        2.89924  -0.00353   0.00000  -0.01923  -0.01928   2.87996
   D38       -0.33889   0.00036   0.00000   0.01413   0.01401  -0.32488
   D39        0.23475  -0.00409   0.00000  -0.02331  -0.02269   0.21207
   D40       -2.81050  -0.00762   0.00000  -0.05523  -0.05504  -2.86554
         Item               Value     Threshold  Converged?
 Maximum Force            0.134292     0.000450     NO 
 RMS     Force            0.023433     0.000300     NO 
 Maximum Displacement     0.241736     0.001800     NO 
 RMS     Displacement     0.065195     0.001200     NO 
 Predicted change in Energy=-3.654347D-02
 GradGradGradGradGradGradGradGradGradGradGradGradGradGradGradGradGradGrad

                          Input orientation:                          
 ---------------------------------------------------------------------
 Center     Atomic      Atomic             Coordinates (Angstroms)
 Number     Number       Type             X           Y           Z
 ---------------------------------------------------------------------
      1          7           0        1.681233   -1.783872    0.898783
      2          6           0        2.842130   -1.963661    0.672099
      3          6           0        5.220420   -1.207232    0.505897
      4          6           0        4.242458   -2.232667    0.402434
      5          6           0        4.630279   -3.563371    0.012861
      6          6           0        5.935787   -3.817106   -0.419085
      7          6           0        6.938830   -2.789759   -0.425644
      8          6           0        6.608600   -1.510287    0.225952
      9          6           0        7.703960   -0.652179    0.546581
     10          6           0        8.972563   -0.922647    0.025100
     11          6           0        9.131857   -1.956983   -0.958211
     12          6           0        8.189075   -2.979318   -1.108921
     13          7           0        4.501881    1.312115    0.969792
     14          6           0        4.805898    0.168715    0.784913
     15          1           0        3.877955   -4.359963   -0.000786
     16          1           0        6.197983   -4.817423   -0.788846
     17          1           0        7.551138    0.223091    1.189532
     18          1           0        9.812271   -0.270096    0.309177
     19          1           0        9.990981   -1.901516   -1.644958
 ---------------------------------------------------------------------
                    Distance matrix (angstroms):
                    1          2          3          4          5
     1  N    0.000000
     2  C    1.196408   0.000000
     3  C    3.607314   2.501214   0.000000
     4  C    2.647196   1.451206   1.420786   0.000000
     5  C    3.556451   2.488201   2.478456   1.439773   0.000000
     6  C    4.896126   3.767845   2.859858   2.460225   1.398324
     7  C    5.514367   4.320930   2.514975   2.875151   2.473898
     8  C    4.980612   3.819802   1.448191   2.480244   2.859077
     9  C    6.138242   5.037175   2.545135   3.807981   4.267015
    10  C    7.393816   6.251762   3.793512   4.922645   5.082224
    11  C    7.680507   6.497586   4.243240   5.082675   4.877261
    12  C    6.914620   5.726553   3.815867   4.291558   3.776843
    13  N    4.188823   3.684306   2.660565   3.599261   4.970168
    14  C    3.686339   2.901058   1.463867   2.496075   3.815150
    15  H    3.503007   2.695917   3.463907   2.195641   1.095781
    16  H    5.696626   4.641127   3.957962   3.453142   2.161730
    17  H    6.210332   5.217698   2.818763   4.194954   4.924761
    18  H    8.291739   7.182113   4.690631   5.906201   6.147074
    19  H    8.691166   7.515230   5.278870   6.111219   5.852116
                    6          7          8          9         10
     6  C    0.000000
     7  C    1.435821   0.000000
     8  C    2.488005   1.473323   0.000000
     9  C    3.751761   2.469797   1.427924   0.000000
    10  C    4.218673   2.797382   2.444173   1.398016   0.000000
    11  C    3.737055   2.405517   2.822872   2.450674   1.436011
    12  C    2.501013   1.437327   2.537290   2.896826   2.475834
    13  N    5.503997   4.971050   3.599655   3.780326   5.086610
    14  C    4.314282   3.842840   2.526107   3.021495   4.373726
    15  H    2.168949   3.466266   3.953288   5.355893   6.145799
    16  H    1.098227   2.189107   3.483614   4.626077   4.850781
    17  H    4.638987   3.472893   2.195783   1.096740   2.165425
    18  H    5.304600   3.891700   3.436351   2.155765   1.100742
    19  H    4.649392   3.404604   3.885083   3.405019   2.187340
                   11         12         13         14         15
    11  C    0.000000
    12  C    1.398829   0.000000
    13  N    5.986725   6.027673   0.000000
    14  C    5.125524   4.994257   1.197486   0.000000
    15  H    5.856148   4.660461   5.788245   4.689064   0.000000
    16  H    4.101026   2.728648   6.598546   5.410747   2.492557
    17  H    3.444444   3.993154   3.245339   2.775430   5.992789
    18  H    2.216941   3.462031   5.580327   5.048034   7.213820
    19  H    1.101268   2.166993   6.877105   6.088942   6.790902
                   16         17         18         19
    16  H    0.000000
    17  H    5.581378   0.000000
    18  H    5.911592   2.476082   0.000000
    19  H    4.860275   4.301294   2.551885   0.000000
 Stoichiometry    C12H5N2(1-)
 Framework group  C1[X(C12H5N2)]
 Deg. of freedom    51
 Full point group                 C1      NOp   1
 Largest Abelian subgroup         C1      NOp   1
 Largest concise Abelian subgroup C1      NOp   1
                         Standard orientation:                         
 ---------------------------------------------------------------------
 Center     Atomic      Atomic             Coordinates (Angstroms)
 Number     Number       Type             X           Y           Z
 ---------------------------------------------------------------------
      1          7           0        4.212455   -0.408934    0.066555
      2          6           0        3.020443   -0.493381    0.008530
      3          6           0        0.721315    0.487911   -0.076022
      4          6           0        1.579787   -0.644186   -0.079608
      5          6           0        1.025140   -1.970437   -0.159434
      6          6           0       -0.357456   -2.160679   -0.072550
      7          6           0       -1.264154   -1.052122    0.030322
      8          6           0       -0.712113    0.300304   -0.161707
      9          6           0       -1.649232    1.343329   -0.431657
     10          6           0       -3.016541    1.109185   -0.258185
     11          6           0       -3.457338   -0.116133    0.347141
     12          6           0       -2.643183   -1.253078    0.382183
     13          7           0        1.696563    2.929827    0.329622
     14          6           0        1.281039    1.825436    0.125584
     15          1           0        1.699354   -2.831649   -0.226413
     16          1           0       -0.762569   -3.181298   -0.054603
     17          1           0       -1.299831    2.328878   -0.762490
     18          1           0       -3.726977    1.913649   -0.502629
     19          1           0       -4.439343   -0.132734    0.845321
 ---------------------------------------------------------------------
 Rotational constants (GHZ):      1.3184313      0.5541258      0.3965454
 Standard basis: STO-3G (5D, 7F)
 There are    75 symmetry adapted cartesian basis functions of A   symmetry.
 There are    75 symmetry adapted basis functions of A   symmetry.
    75 basis functions,   225 primitive gaussians,    75 cartesian basis functions
    46 alpha electrons       46 beta electrons
       nuclear repulsion energy       704.9791143476 Hartrees.
 NAtoms=   19 NActive=   19 NUniq=   19 SFac= 1.00D+00 NAtFMM=   60 NAOKFM=F Big=F
 Integral buffers will be    131072 words long.
 Raffenetti 2 integral format.
 Two-electron integral symmetry is turned on.
 One-electron integrals computed using PRISM.
 NBasis=    75 RedAO= T EigKep=  1.73D-01  NBF=    75
 NBsUse=    75 1.00D-06 EigRej= -1.00D+00 NBFU=    75
 Initial guess from the checkpoint file:  "/tmp/bnp.472631.sequoia/Gau-13532.chk"
 B after Tr=     0.000000    0.000000    0.000000
         Rot=    0.999967   -0.001611    0.000732    0.007933 Ang=  -0.93 deg.
 ExpMin= 1.69D-01 ExpMax= 9.91D+01 ExpMxC= 9.91D+01 IAcc=1 IRadAn=         1 AccDes= 0.00D+00
 Harris functional with IExCor=  402 and IRadAn=       1 diagonalized for initial guess.
 HarFok:  IExCor=  402 AccDes= 0.00D+00 IRadAn=         1 IDoV= 1 UseB2=F ITyADJ=14
 ICtDFT=  3500011 ScaDFX=  1.000000  1.000000  1.000000  1.000000
 FoFCou: FMM=F IPFlag=           0 FMFlag=      100000 FMFlg1=           0
         NFxFlg=           0 DoJE=T BraDBF=F KetDBF=T FulRan=T
         wScrn=  0.000000 ICntrl=     500 IOpCl=  0 I1Cent=   200000004 NGrid=           0
         NMat0=    1 NMatS0=      1 NMatT0=    0 NMatD0=    1 NMtDS0=    0 NMtDT0=    0
 Petite list used in FoFCou.
 Keep R1 ints in memory in canonical form, NReq=4993994.
 Requested convergence on RMS density matrix=1.00D-08 within 128 cycles.
 Requested convergence on MAX density matrix=1.00D-06.
 Requested convergence on             energy=1.00D-06.
 No special actions if energy rises.
 Integral accuracy reduced to 1.0D-05 until final iterations.
 Initial convergence to 1.0D-05 achieved.  Increase integral accuracy.
 SCF Done:  E(RB3LYP) =  -562.495684930     A.U. after   19 cycles
            NFock= 19  Conv=0.58D-08     -V/T= 2.0141
 Calling FoFJK, ICntrl=      2127 FMM=F ISym2X=0 I1Cent= 0 IOpClX= 0 NMat=1 NMatS=1 NMatT=0.
 ***** Axes restored to original set *****
 -------------------------------------------------------------------
 Center     Atomic                   Forces (Hartrees/Bohr)
 Number     Number              X              Y              Z
 -------------------------------------------------------------------
      1        7          -0.010139463    0.001742102    0.001968069
      2        6           0.005162777   -0.000060519   -0.000608539
      3        6          -0.000281444    0.001909204   -0.002233898
      4        6           0.001393604   -0.001167253    0.000264506
      5        6           0.008754583   -0.005554581   -0.004129033
      6        6          -0.012345935    0.005382278    0.008383514
      7        6           0.006894314    0.003865489    0.003499197
      8        6          -0.006909359   -0.000560585   -0.001483364
      9        6           0.007392331    0.003823242   -0.000066907
     10        6          -0.001311689    0.006175165   -0.002025329
     11        6          -0.011079550   -0.001572694    0.003603545
     12        6           0.008774884   -0.013338842   -0.014654653
     13        7          -0.002042817    0.007689578    0.001646228
     14        6           0.002940071   -0.009677337    0.002986592
     15        1          -0.002310655    0.000997726   -0.000018369
     16        1           0.001015770   -0.000825537   -0.001862443
     17        1          -0.002198337    0.000338387   -0.000338363
     18        1           0.000703301    0.000861977    0.001339113
     19        1           0.005587615   -0.000027801    0.003730133
 -------------------------------------------------------------------
 Cartesian Forces:  Max     0.014654653 RMS     0.005319806

 GradGradGradGradGradGradGradGradGradGradGradGradGradGradGradGradGradGrad
 Berny optimization.
 Using GEDIIS/GDIIS optimizer.
 FormGI is forming the generalized inverse of G from B-inverse, IUseBI=4.
 Internal  Forces:  Max     0.013185140 RMS     0.003464261
 Search for a local minimum.
 Step number   2 out of a maximum of  102
 All quantities printed in internal units (Hartrees-Bohrs-Radians)
 Mixed Optimization -- RFO/linear search
 Update second derivatives using D2CorX and points    1    2
 DE= -3.35D-02 DEPred=-3.65D-02 R= 9.16D-01
 TightC=F SS=  1.41D+00  RLast= 3.33D-01 DXNew= 5.0454D-01 9.9864D-01
 Trust test= 9.16D-01 RLast= 3.33D-01 DXMaxT set to 5.05D-01
 ITU=  1  0
 Use linear search instead of GDIIS.
     Eigenvalues ---    0.01944   0.01945   0.01962   0.01989   0.02027
     Eigenvalues ---    0.02042   0.02042   0.02076   0.02126   0.02143
     Eigenvalues ---    0.02164   0.02182   0.02212   0.02250   0.02257
     Eigenvalues ---    0.02407   0.04891   0.04896   0.15876   0.15939
     Eigenvalues ---    0.15979   0.15996   0.16029   0.21673   0.22078
     Eigenvalues ---    0.22808   0.24062   0.24583   0.24777   0.24919
     Eigenvalues ---    0.25002   0.34656   0.34956   0.34984   0.35053
     Eigenvalues ---    0.35741   0.37132   0.38209   0.41369   0.41646
     Eigenvalues ---    0.42995   0.43783   0.44315   0.44893   0.45952
     Eigenvalues ---    0.46517   0.46843   0.47251   0.51628   1.30174
     Eigenvalues ---    1.36650
 RFO step:  Lambda=-8.42785975D-03 EMin= 1.94369057D-02
 Quartic linear search produced a step of  0.21021.
 Iteration  1 RMS(Cart)=  0.11128137 RMS(Int)=  0.00610517
 Iteration  2 RMS(Cart)=  0.00927531 RMS(Int)=  0.00064309
 Iteration  3 RMS(Cart)=  0.00005551 RMS(Int)=  0.00064174
 Iteration  4 RMS(Cart)=  0.00000001 RMS(Int)=  0.00064174
 Variable       Old X    -DE/DX   Delta X   Delta X   Delta X     New X
                                 (Linear)    (Quad)   (Total)
    R1        2.26088   0.01047   0.01806  -0.00694   0.01112   2.27200
    R2        2.74238   0.00537   0.01599   0.00001   0.01600   2.75838
    R3        2.68490   0.00072   0.00712  -0.00521   0.00208   2.68698
    R4        2.73668   0.00110   0.01464  -0.00889   0.00589   2.74258
    R5        2.76631  -0.00124   0.00205  -0.00575  -0.00370   2.76261
    R6        2.72078   0.00135   0.01323  -0.01029   0.00296   2.72374
    R7        2.64245  -0.00555   0.00464  -0.01897  -0.01445   2.62800
    R8        2.07073   0.00086   0.00176   0.00133   0.00309   2.07381
    R9        2.71331   0.00474   0.01586  -0.00157   0.01414   2.72745
   R10        2.07535   0.00162   0.00377   0.00204   0.00581   2.08116
   R11        2.78418   0.00438   0.02241  -0.00439   0.01779   2.80196
   R12        2.71616   0.01064   0.01763   0.01179   0.02925   2.74540
   R13        2.69838   0.00254   0.00531   0.00243   0.00760   2.70599
   R14        2.64187  -0.00363   0.00257  -0.01247  -0.00980   2.63207
   R15        2.07254   0.00038   0.00342  -0.00181   0.00161   2.07415
   R16        2.71367   0.00500   0.01991  -0.00676   0.01344   2.72711
   R17        2.08010   0.00139   0.00482   0.00033   0.00515   2.08525
   R18        2.64340   0.00407   0.00346   0.00636   0.00991   2.65331
   R19        2.08110   0.00203   0.00746  -0.00004   0.00742   2.08851
   R20        2.26292   0.00812   0.01563  -0.00658   0.00905   2.27197
    A1        2.08828   0.00078   0.00294   0.00899   0.00998   2.09826
    A2        2.09135  -0.00043  -0.00329   0.00084  -0.00445   2.08689
    A3        2.10015  -0.00013   0.00122  -0.00160  -0.00242   2.09773
    A4        2.11399  -0.00042  -0.00086  -0.00092  -0.00177   2.11223
    A5        2.07319   0.00210   0.00463   0.00583   0.01047   2.08366
    A6        2.09596  -0.00167  -0.00376  -0.00480  -0.00867   2.08729
    A7        2.09760   0.00039   0.00243  -0.00170   0.00006   2.09766
    A8        2.08326  -0.00249  -0.00607  -0.01030  -0.01637   2.06689
    A9        2.10045   0.00215   0.00378   0.01406   0.01786   2.11831
   A10        2.12209   0.00549   0.00833   0.02434   0.03197   2.15407
   A11        2.08539  -0.00166  -0.00176  -0.00683  -0.00834   2.07705
   A12        2.07533  -0.00384  -0.00664  -0.01794  -0.02432   2.05102
   A13        2.05191  -0.00701  -0.01258  -0.01809  -0.03115   2.02077
   A14        2.11235   0.00059   0.00451  -0.00974  -0.00454   2.10781
   A15        2.11734   0.00643   0.00812   0.02867   0.03648   2.15382
   A16        2.07382   0.00250   0.00366   0.01402   0.01739   2.09121
   A17        2.17262  -0.00275  -0.00396  -0.01783  -0.02155   2.15107
   A18        2.03672   0.00023   0.00031   0.00350   0.00252   2.03924
   A19        2.08986  -0.00180  -0.00517  -0.00142  -0.00739   2.08247
   A20        2.09942  -0.00121  -0.00174  -0.01011  -0.01185   2.08757
   A21        2.09384   0.00302   0.00696   0.01195   0.01894   2.11278
   A22        2.08913   0.00129   0.00521   0.00345   0.00737   2.09650
   A23        2.07291  -0.00133  -0.00752   0.00141  -0.00718   2.06573
   A24        2.11660   0.00026   0.00296   0.00238   0.00425   2.12085
   A25        2.12402   0.00832   0.00838   0.03923   0.04678   2.17080
   A26        2.06834  -0.00767  -0.00649  -0.04064  -0.04812   2.02022
   A27        2.08910  -0.00052  -0.00140   0.00535   0.00297   2.09207
   A28        2.02489  -0.01319  -0.01500  -0.03971  -0.05540   1.96949
   A29        3.17623  -0.00038   0.00299  -0.01878  -0.01579   3.16044
   A30        3.17672  -0.00006   0.00316  -0.00418  -0.00101   3.17571
   A31        3.13263   0.00010  -0.00432   0.00814   0.00382   3.13645
   A32        3.17692  -0.00086  -0.00337  -0.01500  -0.01837   3.15855
    D1       -3.13863  -0.00033  -0.00128  -0.01043  -0.01164   3.13292
    D2       -0.00692   0.00023   0.00038   0.00338   0.00329  -0.00363
    D3       -0.08542   0.00253   0.00783   0.09577   0.10322   0.01780
    D4        3.04629   0.00310   0.00949   0.10958   0.11815  -3.11875
    D5        0.21931  -0.00118  -0.00267  -0.06978  -0.07342   0.14589
    D6       -2.91475  -0.00017   0.00165  -0.01791  -0.01695  -2.93170
    D7       -2.83345  -0.00404  -0.01147  -0.17666  -0.18889  -3.02234
    D8        0.31568  -0.00303  -0.00715  -0.12479  -0.13242   0.18326
    D9        2.99821   0.00184   0.00488   0.07030   0.07475   3.07295
   D10       -0.07792   0.00079   0.00255   0.03385   0.03653  -0.04138
   D11       -0.13374   0.00130   0.00332   0.05684   0.06013  -0.07361
   D12        3.07332   0.00025   0.00099   0.02040   0.02192   3.09524
   D13        0.05464  -0.00145  -0.00430  -0.04581  -0.04994   0.00470
   D14       -3.05734  -0.00073  -0.00074  -0.02814  -0.02889  -3.08623
   D15        3.13011  -0.00056  -0.00238  -0.00993  -0.01190   3.11821
   D16        0.01814   0.00016   0.00118   0.00774   0.00916   0.02729
   D17        0.15701  -0.00058   0.00017  -0.02473  -0.02472   0.13229
   D18       -2.92489  -0.00080  -0.00123  -0.04143  -0.04306  -2.96795
   D19       -3.01403  -0.00125  -0.00334  -0.04213  -0.04524  -3.05927
   D20        0.18726  -0.00148  -0.00474  -0.05883  -0.06358   0.12367
   D21       -0.29162   0.00218   0.00397   0.08347   0.08731  -0.20431
   D22        2.84302   0.00123   0.00002   0.03552   0.03428   2.87730
   D23        2.79009   0.00219   0.00523   0.09882   0.10463   2.89472
   D24       -0.35845   0.00124   0.00128   0.05087   0.05159  -0.30686
   D25       -3.05470   0.00029   0.00193   0.03159   0.03393  -3.02078
   D26        0.14884   0.00053   0.00127   0.01592   0.01659   0.16542
   D27       -2.94237  -0.00318  -0.00827  -0.10748  -0.11493  -3.05730
   D28        0.18660  -0.00218  -0.00499  -0.06912  -0.07355   0.11305
   D29        0.20661  -0.00219  -0.00401  -0.05666  -0.06008   0.14653
   D30       -2.94760  -0.00120  -0.00073  -0.01830  -0.01871  -2.96631
   D31        0.13581  -0.00118  -0.00079  -0.01053  -0.01005   0.12576
   D32       -3.10680   0.00137   0.00570   0.06969   0.07606  -3.03074
   D33       -2.99320  -0.00214  -0.00393  -0.04861  -0.05181  -3.04501
   D34        0.04737   0.00041   0.00256   0.03161   0.03430   0.08167
   D35       -0.36524   0.00158   0.00179   0.07687   0.07980  -0.28544
   D36        2.71310   0.00402   0.00879   0.14919   0.15789   2.87099
   D37        2.87996  -0.00094  -0.00405  -0.00535  -0.00842   2.87155
   D38       -0.32488   0.00150   0.00294   0.06696   0.06967  -0.25521
   D39        0.21207  -0.00231  -0.00477  -0.07799  -0.08202   0.13005
   D40       -2.86554  -0.00452  -0.01157  -0.14953  -0.16141  -3.02695
         Item               Value     Threshold  Converged?
 Maximum Force            0.013185     0.000450     NO 
 RMS     Force            0.003464     0.000300     NO 
 Maximum Displacement     0.477986     0.001800     NO 
 RMS     Displacement     0.111585     0.001200     NO 
 Predicted change in Energy=-5.009672D-03
 GradGradGradGradGradGradGradGradGradGradGradGradGradGradGradGradGradGrad

                          Input orientation:                          
 ---------------------------------------------------------------------
 Center     Atomic      Atomic             Coordinates (Angstroms)
 Number     Number       Type             X           Y           Z
 ---------------------------------------------------------------------
      1          7           0        1.676715   -1.776357    0.982225
      2          6           0        2.830967   -1.968095    0.705739
      3          6           0        5.203837   -1.197743    0.445527
      4          6           0        4.227657   -2.228917    0.371261
      5          6           0        4.622077   -3.554569   -0.034372
      6          6           0        5.930386   -3.802972   -0.435131
      7          6           0        6.957506   -2.789549   -0.468591
      8          6           0        6.589771   -1.478978    0.119351
      9          6           0        7.662675   -0.574824    0.405449
     10          6           0        8.948447   -0.881603   -0.033470
     11          6           0        9.166949   -2.015570   -0.898906
     12          6           0        8.241528   -3.053136   -1.095050
     13          7           0        4.519066    1.256316    1.222731
     14          6           0        4.808686    0.139501    0.884631
     15          1           0        3.862047   -4.346153   -0.042524
     16          1           0        6.197695   -4.810238   -0.791257
     17          1           0        7.465324    0.333533    0.989098
     18          1           0        9.780397   -0.230607    0.285437
     19          1           0       10.143570   -2.044199   -1.415475
 ---------------------------------------------------------------------
                    Distance matrix (angstroms):
                    1          2          3          4          5
     1  N    0.000000
     2  C    1.202292   0.000000
     3  C    3.614337   2.508319   0.000000
     4  C    2.661840   1.459673   1.421887   0.000000
     5  C    3.587571   2.504544   2.474546   1.441339   0.000000
     6  C    4.920344   3.778195   2.844407   2.455037   1.390678
     7  C    5.569397   4.368314   2.538664   2.910625   2.495603
     8  C    4.997110   3.835583   1.451309   2.491075   2.864181
     9  C    6.132542   5.037537   2.536832   3.812682   4.279902
    10  C    7.396642   6.257033   3.788336   4.925944   5.085492
    11  C    7.726544   6.536192   4.264106   5.104454   4.875633
    12  C    7.003000   5.804681   3.878586   4.352076   3.804852
    13  N    4.163401   3.676110   2.663712   3.599551   4.973483
    14  C    3.672775   2.895745   1.461909   2.492097   3.811239
    15  H    3.525569   2.697810   3.457033   2.188053   1.097414
    16  H    5.726162   4.653346   3.945568   3.449017   2.152243
    17  H    6.161143   5.182186   2.784708   4.174968   4.924315
    18  H    8.279162   7.175660   4.680372   5.901994   6.144857
    19  H    8.803882   7.614427   5.346099   6.182602   5.888594
                    6          7          8          9         10
     6  C    0.000000
     7  C    1.443303   0.000000
     8  C    2.478546   1.482735   0.000000
     9  C    3.758769   2.483187   1.431946   0.000000
    10  C    4.219529   2.791672   2.437942   1.392830   0.000000
    11  C    3.726289   2.380304   2.822520   2.457628   1.443123
    12  C    2.517762   1.452804   2.584771   2.954420   2.518381
    13  N    5.507879   5.017528   3.603762   3.728713   5.076235
    14  C    4.306168   3.876593   2.525350   2.980793   4.361558
    15  H    2.174216   3.490905   3.960730   5.372930   6.154239
    16  H    1.101300   2.182798   3.475661   4.638642   4.855414
    17  H    4.636285   3.483730   2.192772   1.097590   2.172983
    18  H    5.301283   3.884000   3.430176   2.148868   1.103466
    19  H    4.669611   3.406337   3.912115   3.410230   2.165614
                   11         12         13         14         15
    11  C    0.000000
    12  C    1.404072   0.000000
    13  N    6.067075   6.148187   0.000000
    14  C    5.178783   5.088858   1.202276   0.000000
    15  H    5.857217   4.686103   5.781021   4.677268   0.000000
    16  H    4.078997   2.712370   6.608859   5.407204   2.496243
    17  H    3.460978   4.051628   3.096215   2.665762   5.995608
    18  H    2.228246   3.498647   5.547167   5.021347   7.216104
    19  H    1.105193   2.176784   7.034812   6.206450   6.829459
                   16         17         18         19
    16  H    0.000000
    17  H    5.588821   0.000000
    18  H    5.913378   2.484543   0.000000
    19  H    4.859068   4.313766   2.512790   0.000000
 Stoichiometry    C12H5N2(1-)
 Framework group  C1[X(C12H5N2)]
 Deg. of freedom    51
 Full point group                 C1      NOp   1
 Largest Abelian subgroup         C1      NOp   1
 Largest concise Abelian subgroup C1      NOp   1
                         Standard orientation:                         
 ---------------------------------------------------------------------
 Center     Atomic      Atomic             Coordinates (Angstroms)
 Number     Number       Type             X           Y           Z
 ---------------------------------------------------------------------
      1          7           0        4.227384   -0.440993    0.045761
      2          6           0        3.029045   -0.533020    0.013844
      3          6           0        0.729736    0.469399    0.013042
      4          6           0        1.576750   -0.671723   -0.033562
      5          6           0        0.994818   -1.986425   -0.135407
      6          6           0       -0.386387   -2.144457   -0.099559
      7          6           0       -1.309398   -1.042684    0.031843
      8          6           0       -0.711805    0.312052   -0.046112
      9          6           0       -1.612948    1.405165   -0.254710
     10          6           0       -2.985867    1.177852   -0.196426
     11          6           0       -3.489916   -0.107547    0.223443
     12          6           0       -2.721143   -1.281172    0.278297
     13          7           0        1.769198    2.917026    0.167970
     14          6           0        1.321133    1.804280    0.087347
     15          1           0        1.666808   -2.850415   -0.214572
     16          1           0       -0.808402   -3.161353   -0.125796
     17          1           0       -1.213232    2.401238   -0.484428
     18          1           0       -3.665851    2.004768   -0.463767
     19          1           0       -4.559497   -0.136793    0.500196
 ---------------------------------------------------------------------
 Rotational constants (GHZ):      1.3241895      0.5501604      0.3913505
 Standard basis: STO-3G (5D, 7F)
 There are    75 symmetry adapted cartesian basis functions of A   symmetry.
 There are    75 symmetry adapted basis functions of A   symmetry.
    75 basis functions,   225 primitive gaussians,    75 cartesian basis functions
    46 alpha electrons       46 beta electrons
       nuclear repulsion energy       703.1447887411 Hartrees.
 NAtoms=   19 NActive=   19 NUniq=   19 SFac= 1.00D+00 NAtFMM=   60 NAOKFM=F Big=F
 Integral buffers will be    131072 words long.
 Raffenetti 2 integral format.
 Two-electron integral symmetry is turned on.
 One-electron integrals computed using PRISM.
 NBasis=    75 RedAO= T EigKep=  1.75D-01  NBF=    75
 NBsUse=    75 1.00D-06 EigRej= -1.00D+00 NBFU=    75
 Initial guess from the checkpoint file:  "/tmp/bnp.472631.sequoia/Gau-13532.chk"
 B after Tr=     0.000000    0.000000    0.000000
         Rot=    0.999975   -0.001900    0.000604    0.006834 Ang=  -0.82 deg.
 ExpMin= 1.69D-01 ExpMax= 9.91D+01 ExpMxC= 9.91D+01 IAcc=1 IRadAn=         1 AccDes= 0.00D+00
 Harris functional with IExCor=  402 and IRadAn=       1 diagonalized for initial guess.
 HarFok:  IExCor=  402 AccDes= 0.00D+00 IRadAn=         1 IDoV= 1 UseB2=F ITyADJ=14
 ICtDFT=  3500011 ScaDFX=  1.000000  1.000000  1.000000  1.000000
 FoFCou: FMM=F IPFlag=           0 FMFlag=      100000 FMFlg1=           0
         NFxFlg=           0 DoJE=T BraDBF=F KetDBF=T FulRan=T
         wScrn=  0.000000 ICntrl=     500 IOpCl=  0 I1Cent=   200000004 NGrid=           0
         NMat0=    1 NMatS0=      1 NMatT0=    0 NMatD0=    1 NMtDS0=    0 NMtDT0=    0
 Petite list used in FoFCou.
 Keep R1 ints in memory in canonical form, NReq=4993994.
 Requested convergence on RMS density matrix=1.00D-08 within 128 cycles.
 Requested convergence on MAX density matrix=1.00D-06.
 Requested convergence on             energy=1.00D-06.
 No special actions if energy rises.
 Integral accuracy reduced to 1.0D-05 until final iterations.
 Initial convergence to 1.0D-05 achieved.  Increase integral accuracy.
 SCF Done:  E(RB3LYP) =  -562.501734610     A.U. after   19 cycles
            NFock= 19  Conv=0.56D-08     -V/T= 2.0142
 Calling FoFJK, ICntrl=      2127 FMM=F ISym2X=0 I1Cent= 0 IOpClX= 0 NMat=1 NMatS=1 NMatT=0.
 ***** Axes restored to original set *****
 -------------------------------------------------------------------
 Center     Atomic                   Forces (Hartrees/Bohr)
 Number     Number              X              Y              Z
 -------------------------------------------------------------------
      1        7           0.002876459   -0.000887563   -0.000788677
      2        6          -0.001073943    0.001173748    0.000567076
      3        6           0.003275749   -0.000980574    0.001288793
      4        6          -0.002253682   -0.001788568   -0.000680499
      5        6           0.000567595    0.000811678    0.000722575
      6        6          -0.001605025   -0.000391702   -0.001669293
      7        6          -0.003589674    0.008796466    0.004518063
      8        6          -0.003510217   -0.004159162   -0.003342799
      9        6           0.001510742    0.002388284    0.001096978
     10        6           0.000749115   -0.002847984   -0.000348771
     11        6           0.000476433    0.005434933    0.006867751
     12        6           0.001884896   -0.009371740   -0.006358081
     13        7           0.000499080   -0.003053716   -0.000990689
     14        6           0.000173708    0.002959459    0.002515829
     15        1           0.000309449    0.000215178   -0.000462872
     16        1           0.000281599    0.000436044    0.000274229
     17        1          -0.000668742    0.000087150   -0.001031595
     18        1          -0.000417541    0.001012168   -0.003339991
     19        1           0.000513997    0.000165900    0.001161972
 -------------------------------------------------------------------
 Cartesian Forces:  Max     0.009371740 RMS     0.002846152

 GradGradGradGradGradGradGradGradGradGradGradGradGradGradGradGradGradGrad
 Berny optimization.
 Using GEDIIS/GDIIS optimizer.
 FormGI is forming the generalized inverse of G from B-inverse, IUseBI=4.
 Internal  Forces:  Max     0.005688234 RMS     0.001582750
 Search for a local minimum.
 Step number   3 out of a maximum of  102
 All quantities printed in internal units (Hartrees-Bohrs-Radians)
 Mixed Optimization -- RFO/linear search
 Update second derivatives using D2CorX and points    2    3
 DE= -6.05D-03 DEPred=-5.01D-03 R= 1.21D+00
 TightC=F SS=  1.41D+00  RLast= 4.99D-01 DXNew= 8.4853D-01 1.4974D+00
 Trust test= 1.21D+00 RLast= 4.99D-01 DXMaxT set to 8.49D-01
 ITU=  1  1  0
 Use linear search instead of GDIIS.
     Eigenvalues ---    0.01329   0.01945   0.01955   0.01964   0.02021
     Eigenvalues ---    0.02026   0.02036   0.02064   0.02080   0.02135
     Eigenvalues ---    0.02157   0.02179   0.02205   0.02214   0.02290
     Eigenvalues ---    0.02863   0.04889   0.04909   0.15494   0.15986
     Eigenvalues ---    0.15996   0.16016   0.16138   0.19513   0.22041
     Eigenvalues ---    0.22667   0.24073   0.24738   0.24892   0.24997
     Eigenvalues ---    0.25031   0.34664   0.34961   0.35004   0.35062
     Eigenvalues ---    0.35732   0.37168   0.38561   0.41274   0.41711
     Eigenvalues ---    0.42885   0.43464   0.44243   0.44887   0.45879
     Eigenvalues ---    0.46560   0.46748   0.47943   0.52389   1.30464
     Eigenvalues ---    1.38864
 RFO step:  Lambda=-2.80868600D-03 EMin= 1.32918806D-02
 Quartic linear search produced a step of  0.39576.
 Iteration  1 RMS(Cart)=  0.10074196 RMS(Int)=  0.00388054
 Iteration  2 RMS(Cart)=  0.00605455 RMS(Int)=  0.00078254
 Iteration  3 RMS(Cart)=  0.00001555 RMS(Int)=  0.00078246
 Iteration  4 RMS(Cart)=  0.00000000 RMS(Int)=  0.00078246
 Variable       Old X    -DE/DX   Delta X   Delta X   Delta X     New X
                                 (Linear)    (Quad)   (Total)
    R1        2.27200  -0.00308   0.00440  -0.00125   0.00315   2.27515
    R2        2.75838  -0.00172   0.00633  -0.00387   0.00247   2.76085
    R3        2.68698   0.00061   0.00082   0.00271   0.00376   2.69074
    R4        2.74258  -0.00283   0.00233  -0.00594  -0.00387   2.73870
    R5        2.76261   0.00019  -0.00146   0.00157   0.00011   2.76271
    R6        2.72374  -0.00142   0.00117  -0.00274  -0.00107   2.72266
    R7        2.62800  -0.00113  -0.00572  -0.00104  -0.00648   2.62152
    R8        2.07381  -0.00037   0.00122  -0.00140  -0.00018   2.07363
    R9        2.72745   0.00032   0.00560   0.00286   0.00827   2.73572
   R10        2.08116  -0.00042   0.00230  -0.00148   0.00082   2.08198
   R11        2.80196  -0.00357   0.00704  -0.00698  -0.00061   2.80136
   R12        2.74540   0.00509   0.01157   0.01552   0.02703   2.77243
   R13        2.70599   0.00131   0.00301   0.00448   0.00725   2.71324
   R14        2.63207  -0.00040  -0.00388  -0.00007  -0.00398   2.62809
   R15        2.07415  -0.00036   0.00064  -0.00081  -0.00018   2.07397
   R16        2.72711  -0.00321   0.00532  -0.00723  -0.00164   2.72547
   R17        2.08525  -0.00068   0.00204  -0.00219  -0.00015   2.08510
   R18        2.65331   0.00515   0.00392   0.01406   0.01820   2.67151
   R19        2.08851  -0.00009   0.00293   0.00041   0.00334   2.09186
   R20        2.27197  -0.00324   0.00358  -0.00171   0.00187   2.27384
    A1        2.09826   0.00038   0.00395   0.00487   0.00671   2.10497
    A2        2.08689   0.00015  -0.00176  -0.00093  -0.00303   2.08387
    A3        2.09773  -0.00053  -0.00096  -0.00373  -0.00509   2.09264
    A4        2.11223  -0.00013  -0.00070  -0.00112  -0.00168   2.11055
    A5        2.08366   0.00070   0.00414   0.00320   0.00749   2.09115
    A6        2.08729  -0.00057  -0.00343  -0.00210  -0.00591   2.08138
    A7        2.09766  -0.00033   0.00002  -0.00048  -0.00099   2.09667
    A8        2.06689   0.00040  -0.00648   0.00303  -0.00347   2.06342
    A9        2.11831  -0.00006   0.00707  -0.00227   0.00478   2.12309
   A10        2.15407   0.00020   0.01265   0.00291   0.01443   2.16850
   A11        2.07705   0.00030  -0.00330   0.00209  -0.00075   2.07629
   A12        2.05102  -0.00048  -0.00962  -0.00386  -0.01302   2.03799
   A13        2.02077  -0.00013  -0.01233   0.00160  -0.01193   2.00884
   A14        2.10781  -0.00261  -0.00180  -0.01851  -0.01852   2.08929
   A15        2.15382   0.00276   0.01444   0.01745   0.03105   2.18487
   A16        2.09121   0.00070   0.00688   0.00462   0.01029   2.10150
   A17        2.15107  -0.00151  -0.00853  -0.01242  -0.01903   2.13204
   A18        2.03924   0.00080   0.00100   0.00742   0.00678   2.04603
   A19        2.08247  -0.00105  -0.00293  -0.00242  -0.00751   2.07496
   A20        2.08757  -0.00002  -0.00469  -0.00233  -0.00613   2.08144
   A21        2.11278   0.00108   0.00750   0.00546   0.01387   2.12665
   A22        2.09650   0.00082   0.00292   0.00757   0.00848   2.10498
   A23        2.06573   0.00053  -0.00284   0.00307   0.00054   2.06627
   A24        2.12085  -0.00136   0.00168  -0.01133  -0.00941   2.11144
   A25        2.17080   0.00309   0.01851   0.01917   0.03595   2.20675
   A26        2.02022  -0.00236  -0.01904  -0.01343  -0.03263   1.98759
   A27        2.09207  -0.00072   0.00117  -0.00472  -0.00374   2.08833
   A28        1.96949  -0.00569  -0.02193  -0.01953  -0.04355   1.92594
   A29        3.16044   0.00093  -0.00625   0.06472   0.05847   3.21890
   A30        3.17571  -0.00062  -0.00040  -0.01417  -0.01457   3.16114
   A31        3.13645  -0.00002   0.00151  -0.00744  -0.00593   3.13052
   A32        3.15855   0.00025  -0.00727   0.00764   0.00037   3.15892
    D1        3.13292   0.00029  -0.00460   0.01631   0.01168  -3.13859
    D2       -0.00363   0.00038   0.00130   0.02131   0.02216   0.01853
    D3        0.01780   0.00042   0.04085   0.00748   0.04808   0.06588
    D4       -3.11875   0.00051   0.04676   0.01248   0.05856  -3.06019
    D5        0.14589  -0.00128  -0.02906  -0.06437  -0.09434   0.05155
    D6       -2.93170  -0.00113  -0.00671  -0.05730  -0.06443  -2.99613
    D7       -3.02234  -0.00141  -0.07476  -0.05544  -0.13090   3.12995
    D8        0.18326  -0.00125  -0.05241  -0.04837  -0.10099   0.08227
    D9        3.07295   0.00060   0.02958   0.02058   0.04984   3.12280
   D10       -0.04138   0.00027   0.01446   0.00909   0.02359  -0.01779
   D11       -0.07361   0.00051   0.02380   0.01565   0.03946  -0.03415
   D12        3.09524   0.00018   0.00868   0.00416   0.01320   3.10845
   D13        0.00470  -0.00026  -0.01976  -0.00815  -0.02765  -0.02296
   D14       -3.08623  -0.00075  -0.01143  -0.03532  -0.04673  -3.13296
   D15        3.11821   0.00009  -0.00471   0.00377  -0.00062   3.11759
   D16        0.02729  -0.00040   0.00362  -0.02340  -0.01969   0.00760
   D17        0.13229  -0.00071  -0.00978  -0.03376  -0.04366   0.08863
   D18       -2.96795  -0.00105  -0.01704  -0.04811  -0.06528  -3.03323
   D19       -3.05927  -0.00021  -0.01790  -0.00681  -0.02466  -3.08393
   D20        0.12367  -0.00055  -0.02516  -0.02116  -0.04628   0.07740
[...]
 ! D15   D(15,5,6,7)          -179.9575         -DE/DX =    0.0                 !
 ! D16   D(15,5,6,16)           -0.5237         -DE/DX =    0.0                 !
 ! D17   D(5,6,7,8)              0.1592         -DE/DX =    0.0                 !
 ! D18   D(5,6,7,12)          -179.3967         -DE/DX =    0.0                 !
 ! D19   D(16,6,7,8)          -179.2866         -DE/DX =    0.0                 !
 ! D20   D(16,6,7,12)            1.1574         -DE/DX =    0.0                 !
 ! D21   D(6,7,8,3)              0.3852         -DE/DX =    0.0                 !
 ! D22   D(6,7,8,9)            177.6847         -DE/DX =    0.0                 !
 ! D23   D(12,7,8,3)           179.8996         -DE/DX =    0.0                 !
 ! D24   D(12,7,8,9)            -2.8009         -DE/DX =    0.0                 !
 ! D25   D(6,7,12,11)         -176.1313         -DE/DX =    0.0                 !
 ! D26   D(8,7,12,11)            4.3626         -DE/DX =    0.0                 !
 ! D27   D(3,8,9,10)           176.4312         -DE/DX =    0.0                 !
 ! D28   D(3,8,9,17)            -3.0252         -DE/DX =    0.0                 !
 ! D29   D(7,8,9,10)            -0.8019         -DE/DX =    0.0                 !
 ! D30   D(7,8,9,17)           179.7417         -DE/DX =    0.0                 !
 ! D31   D(8,9,10,11)            2.2354         -DE/DX =    0.0                 !
 ! D32   D(8,9,10,18)          179.985          -DE/DX =    0.0                 !
 ! D33   D(17,9,10,11)        -178.3185         -DE/DX =    0.0                 !
 ! D34   D(17,9,10,18)          -0.5688         -DE/DX =    0.0                 !
 ! D35   D(9,10,11,12)          -0.2019         -DE/DX =    0.0                 !
 ! D36   D(9,10,11,19)         177.1788         -DE/DX =    0.0                 !
 ! D37   D(18,10,11,12)       -177.9107         -DE/DX =    0.0                 !
 ! D38   D(18,10,11,19)         -0.53           -DE/DX =    0.0                 !
 ! D39   D(10,11,12,7)          -2.8785         -DE/DX =    0.0                 !
 ! D40   D(19,11,12,7)         179.84           -DE/DX =    0.0                 !
 --------------------------------------------------------------------------------
 GradGradGradGradGradGradGradGradGradGradGradGradGradGradGradGradGradGrad

                          Input orientation:                          
 ---------------------------------------------------------------------
 Center     Atomic      Atomic             Coordinates (Angstroms)
 Number     Number       Type             X           Y           Z
 ---------------------------------------------------------------------
      1          7           0        1.703653   -1.815672    1.110892
      2          6           0        2.845258   -1.984071    0.780050
      3          6           0        5.212636   -1.214008    0.485897
      4          6           0        4.223760   -2.229267    0.366052
      5          6           0        4.587466   -3.516332   -0.151571
      6          6           0        5.902296   -3.761555   -0.538151
      7          6           0        6.961272   -2.785750   -0.459251
      8          6           0        6.583127   -1.463488    0.072243
      9          6           0        7.612041   -0.482817    0.214946
     10          6           0        8.916469   -0.831610   -0.138159
     11          6           0        9.223258   -2.117847   -0.675975
     12          6           0        8.309236   -3.187119   -0.920312
     13          7           0        4.563023    1.150560    1.520813
     14          6           0        4.845333    0.075768    1.065036
     15          1           0        3.814964   -4.291299   -0.229377
     16          1           0        6.171646   -4.757203   -0.921552
     17          1           0        7.367320    0.513014    0.602922
     18          1           0        9.709226   -0.073456   -0.027620
     19          1           0       10.283314   -2.252007   -0.960212
 ---------------------------------------------------------------------
                    Distance matrix (angstroms):
                    1          2          3          4          5
     1  N    0.000000
     2  C    1.200449   0.000000
     3  C    3.614634   2.506791   0.000000
     4  C    2.660223   1.460063   1.422318   0.000000
     5  C    3.578049   2.500205   2.469393   1.434138   0.000000
     6  C    4.912678   3.773935   2.830954   2.446011   1.392249
     7  C    5.572159   4.372657   2.534050   2.912863   2.502674
     8  C    5.001209   3.839747   1.453133   2.497869   2.871746
     9  C    6.122766   5.029445   2.522935   3.814888   4.299373
    10  C    7.386015   6.247469   3.775454   4.922315   5.093935
    11  C    7.734899   6.543453   4.272232   5.108152   4.870455
    12  C    7.045593   5.847530   3.931860   4.389000   3.814567
    13  N    4.140358   3.650392   2.661622   3.587730   4.957555
    14  C    3.667397   2.885213   1.460765   2.487593   3.801291
    15  H    3.518904   2.698624   3.454681   2.184863   1.096989
    16  H    5.722447   4.653017   3.931265   3.441314   2.154591
    17  H    6.144748   5.168737   2.763867   4.178299   4.953027
    18  H    8.271682   7.170553   4.667321   5.907016   6.172616
    19  H    8.836879   7.643623   5.374053   6.203038   5.890255
                    6          7          8          9         10
     6  C    0.000000
     7  C    1.442169   0.000000
     8  C    2.473302   1.474400   0.000000
     9  C    3.773660   2.486271   1.428546   0.000000
    10  C    4.222535   2.782904   2.426525   1.395662   0.000000
    11  C    3.708040   2.368469   2.821047   2.462333   1.427505
    12  C    2.503873   1.480094   2.633537   3.014654   2.555174
    13  N    5.491982   5.016651   3.607273   3.697258   5.062971
    14  C    4.290970   3.871555   2.524851   2.947769   4.341101
    15  H    2.175528   3.495536   3.968654   5.396272   6.164666
    16  H    1.100391   2.173444   3.464896   4.651531   4.853662
    17  H    4.660502   3.489259   2.191606   1.096400   2.181072
    18  H    5.324982   3.885112   3.422668   2.150489   1.102488
    19  H    4.652976   3.401735   3.921621   3.412731   2.135782
                   11         12         13         14         15
    11  C    0.000000
    12  C    1.427753   0.000000
    13  N    6.101324   6.229659   0.000000
    14  C    5.197046   5.156225   1.201087   0.000000
    15  H    5.845766   4.679218   5.765118   4.669951   0.000000
    16  H    4.042133   2.652255   6.592001   5.391034   2.500024
    17  H    3.464320   4.110770   3.018786   2.600990   6.032692
    18  H    2.199105   3.528706   5.511739   4.987346   7.250739
    19  H    1.105671   2.184722   7.103145   6.252343   6.821464
                   16         17         18         19
    16  H    0.000000
    17  H    5.615055   0.000000
    18  H    5.937261   2.495207   0.000000
    19  H    4.814905   4.311815   2.438317   0.000000
 Stoichiometry    C12H5N2(1-)
 Framework group  C1[X(C12H5N2)]
 Deg. of freedom    51
 Full point group                 C1      NOp   1
 Largest Abelian subgroup         C1      NOp   1
 Largest concise Abelian subgroup C1      NOp   1
                         Standard orientation:                         
 ---------------------------------------------------------------------
 Center     Atomic      Atomic             Coordinates (Angstroms)
 Number     Number       Type             X           Y           Z
 ---------------------------------------------------------------------
      1          7           0        4.224690   -0.463619   -0.016791
      2          6           0        3.026915   -0.542741   -0.004455
      3          6           0        0.731412    0.464013    0.028840
      4          6           0        1.573583   -0.682016    0.010012
      5          6           0        0.989276   -1.991528   -0.012676
      6          6           0       -0.395811   -2.132551   -0.010258
      7          6           0       -1.319006   -1.024977    0.018739
      8          6           0       -0.714451    0.319556    0.043241
      9          6           0       -1.592472    1.446208    0.021312
     10          6           0       -2.967728    1.216213   -0.039064
     11          6           0       -3.501994   -0.107520   -0.031067
     12          6           0       -2.767251   -1.330109    0.031446
     13          7           0        1.807670    2.898009   -0.010659
     14          6           0        1.334599    1.794034   -0.003494
     15          1           0        1.652562   -2.864967   -0.035975
     16          1           0       -0.832025   -3.142319   -0.040997
     17          1           0       -1.178895    2.461385    0.042785
     18          1           0       -3.643870    2.086866   -0.055657
     19          1           0       -4.606719   -0.153182   -0.033455
 ---------------------------------------------------------------------
 Rotational constants (GHZ):      1.3308971      0.5502153      0.3893420

 **********************************************************************

            Population analysis using the SCF density.

 **********************************************************************

 Orbital symmetries:
       Occupied  (A) (A) (A) (A) (A) (A) (A) (A) (A) (A) (A) (A)
                 (A) (A) (A) (A) (A) (A) (A) (A) (A) (A) (A) (A)
                 (A) (A) (A) (A) (A) (A) (A) (A) (A) (A) (A) (A)
                 (A) (A) (A) (A) (A) (A) (A) (A) (A) (A)
       Virtual   (A) (A) (A) (A) (A) (A) (A) (A) (A) (A) (A) (A)
                 (A) (A) (A) (A) (A) (A) (A) (A) (A) (A) (A) (A)
                 (A) (A) (A) (A) (A)
 The electronic state is 1-A.
 Alpha  occ. eigenvalues --  -13.99943 -13.99027  -9.91674  -9.90962  -9.90285
 Alpha  occ. eigenvalues --   -9.89422  -9.87288  -9.86437  -9.86328  -9.83591
 Alpha  occ. eigenvalues --   -9.82848  -9.82738  -9.78581  -9.66258  -0.73297
 Alpha  occ. eigenvalues --   -0.72192  -0.67149  -0.61225  -0.58240  -0.54314
 Alpha  occ. eigenvalues --   -0.49719  -0.45839  -0.41990  -0.39539  -0.33815
 Alpha  occ. eigenvalues --   -0.32902  -0.30014  -0.27400  -0.24752  -0.22939
 Alpha  occ. eigenvalues --   -0.21724  -0.19901  -0.18290  -0.16591  -0.16179
 Alpha  occ. eigenvalues --   -0.16004  -0.15044  -0.14501  -0.13718  -0.13217
 Alpha  occ. eigenvalues --   -0.10773  -0.09066  -0.06184  -0.02739   0.02552
 Alpha  occ. eigenvalues --    0.11555
 Alpha virt. eigenvalues --    0.15433   0.21166   0.24874   0.26202   0.27645
 Alpha virt. eigenvalues --    0.29389   0.31768   0.38392   0.41148   0.46001
 Alpha virt. eigenvalues --    0.47008   0.50922   0.52833   0.56454   0.58339
 Alpha virt. eigenvalues --    0.60325   0.61839   0.62566   0.67399   0.70018
 Alpha virt. eigenvalues --    0.70555   0.75527   0.78775   0.82833   0.85157
 Alpha virt. eigenvalues --    0.92557   0.93900   1.03756   1.08311
          Condensed to atoms (all electrons):
               1          2          3          4          5          6
     1  N    6.580940   0.659620  -0.000063  -0.010762  -0.000131  -0.000001
     2  C    0.659620   4.930003  -0.028361   0.421327  -0.028468   0.000858
     3  C   -0.000063  -0.028361   4.788111   0.489253  -0.029419  -0.009206
     4  C   -0.010762   0.421327   0.489253   4.771319   0.469119  -0.028642
     5  C   -0.000131  -0.028468  -0.029419   0.469119   4.845178   0.516130
     6  C   -0.000001   0.000858  -0.009206  -0.028642   0.516130   4.838999
     7  C    0.000000   0.000011  -0.021542  -0.007772  -0.025124   0.462918
     8  C   -0.000001   0.000741   0.453593  -0.027179  -0.007491  -0.033353
     9  C    0.000000  -0.000005  -0.029243   0.000668   0.000038   0.000853
    10  C    0.000000   0.000000   0.000812  -0.000007   0.000000   0.000014
    11  C    0.000000   0.000000   0.000043   0.000001  -0.000015   0.001379
    12  C    0.000000   0.000000   0.000544   0.000017   0.000748  -0.034440
    13  N   -0.000011  -0.000034  -0.010548  -0.000075  -0.000001   0.000000
    14  C   -0.000035  -0.002633   0.419235  -0.030928   0.000820   0.000006
    15  H    0.000057  -0.003205   0.001201  -0.025754   0.388016  -0.024118
    16  H    0.000000  -0.000017   0.000026   0.001426  -0.027078   0.383612
    17  H    0.000000   0.000000  -0.003647   0.000014  -0.000001  -0.000020
    18  H    0.000000   0.000000  -0.000017   0.000000   0.000000   0.000001
    19  H    0.000000   0.000000   0.000001   0.000000   0.000000  -0.000016
               7          8          9         10         11         12
     1  N    0.000000  -0.000001   0.000000   0.000000   0.000000   0.000000
     2  C    0.000011   0.000741  -0.000005   0.000000   0.000000   0.000000
     3  C   -0.021542   0.453593  -0.029243   0.000812   0.000043   0.000544
     4  C   -0.007772  -0.027179   0.000668  -0.000007   0.000001   0.000017
     5  C   -0.025124  -0.007491   0.000038   0.000000  -0.000015   0.000748
     6  C    0.462918  -0.033353   0.000853   0.000014   0.001379  -0.034440
     7  C    4.902011   0.428891  -0.029984  -0.013540  -0.029857   0.396778
     8  C    0.428891   4.829235   0.479098  -0.029121  -0.012076  -0.017825
     9  C   -0.029984   0.479098   4.870279   0.514426  -0.029968  -0.006120
    10  C   -0.013540  -0.029121   0.514426   4.852811   0.470315  -0.018455
    11  C   -0.029857  -0.012076  -0.029968   0.470315   4.937841   0.451575
    12  C    0.396778  -0.017825  -0.006120  -0.018455   0.451575   5.477931
    13  N   -0.000001  -0.000061  -0.000153   0.000001   0.000000   0.000000
    14  C    0.000661  -0.025977  -0.004368   0.000019   0.000000  -0.000004
    15  H    0.001232   0.000009   0.000001   0.000000   0.000000  -0.000017
    16  H   -0.025499   0.001425  -0.000016   0.000000   0.000032  -0.001550
    17  H    0.001136  -0.025467   0.387184  -0.024646   0.001251  -0.000003
    18  H    0.000097   0.001491  -0.028362   0.380156  -0.023761   0.001086
    19  H    0.002277   0.000008   0.001460  -0.035608   0.379747  -0.032441
              13         14         15         16         17         18
     1  N   -0.000011  -0.000035   0.000057   0.000000   0.000000   0.000000
     2  C   -0.000034  -0.002633  -0.003205  -0.000017   0.000000   0.000000
     3  C   -0.010548   0.419235   0.001201   0.000026  -0.003647  -0.000017
     4  C   -0.000075  -0.030928  -0.025754   0.001426   0.000014   0.000000
     5  C   -0.000001   0.000820   0.388016  -0.027078  -0.000001   0.000000
     6  C    0.000000   0.000006  -0.024118   0.383612  -0.000020   0.000001
     7  C   -0.000001   0.000661   0.001232  -0.025499   0.001136   0.000097
     8  C   -0.000061  -0.025977   0.000009   0.001425  -0.025467   0.001491
     9  C   -0.000153  -0.004368   0.000001  -0.000016   0.387184  -0.028362
    10  C    0.000001   0.000019   0.000000   0.000000  -0.024646   0.380156
    11  C    0.000000   0.000000   0.000000   0.000032   0.001251  -0.023761
    12  C    0.000000  -0.000004  -0.000017  -0.001550  -0.000003   0.001086
    13  N    6.584741   0.657740   0.000000   0.000000  -0.000176   0.000000
    14  C    0.657740   4.932826  -0.000018   0.000001   0.001462   0.000000
    15  H    0.000000  -0.000018   0.606652  -0.003818   0.000000   0.000000
    16  H    0.000000   0.000001  -0.003818   0.602821   0.000000   0.000000
    17  H   -0.000176   0.001462   0.000000   0.000000   0.618708  -0.003779
    18  H    0.000000   0.000000   0.000000   0.000000  -0.003779   0.640278
    19  H    0.000000   0.000000   0.000000  -0.000003  -0.000040  -0.003708
              19
     1  N    0.000000
     2  C    0.000000
     3  C    0.000001
     4  C    0.000000
     5  C    0.000000
     6  C   -0.000016
     7  C    0.002277
     8  C    0.000008
     9  C    0.001460
    10  C   -0.035608
    11  C    0.379747
    12  C   -0.032441
    13  N    0.000000
    14  C    0.000000
    15  H    0.000000
    16  H   -0.000003
    17  H   -0.000040
    18  H   -0.003708
    19  H    0.675564
 Mulliken charges:
               1
     1  N   -0.229613
     2  C    0.050164
     3  C   -0.020773
     4  C   -0.022026
     5  C   -0.102322
     6  C   -0.074975
     7  C   -0.042693
     8  C   -0.015939
     9  C   -0.125788
    10  C   -0.097177
    11  C   -0.146506
    12  C   -0.217825
    13  N   -0.231419
    14  C    0.051191
    15  H    0.059762
    16  H    0.068638
    17  H    0.048023
    18  H    0.036519
    19  H    0.012758
 Sum of Mulliken charges =  -1.00000
 Mulliken charges with hydrogens summed into heavy atoms:
               1
     1  N   -0.229613
     2  C    0.050164
     3  C   -0.020773
     4  C   -0.022026
     5  C   -0.042560
     6  C   -0.006337
     7  C   -0.042693
     8  C   -0.015939
     9  C   -0.077765
    10  C   -0.060658
    11  C   -0.133748
    12  C   -0.217825
    13  N   -0.231419
    14  C    0.051191
 Electronic spatial extent (au):  <R**2>=           2652.4869
 Charge=             -1.0000 electrons
 Dipole moment (field-independent basis, Debye):
    X=              1.1867    Y=             -0.2215    Z=             -0.1052  Tot=              1.2118
 Quadrupole moment (field-independent basis, Debye-Ang):
   XX=           -123.1377   YY=            -90.2589   ZZ=            -74.2200
   XY=            -13.6527   XZ=              0.4718   YZ=              0.4155
 Traceless Quadrupole moment (field-independent basis, Debye-Ang):
   XX=            -27.2655   YY=              5.6133   ZZ=             21.6522
   XY=            -13.6527   XZ=              0.4718   YZ=              0.4155
 Octapole moment (field-independent basis, Debye-Ang**2):
  XXX=            -31.6278  YYY=            -27.5455  ZZZ=             -0.1147  XYY=             -0.1163
  XXY=             24.1059  XXZ=             -0.3905  XZZ=              6.8368  YZZ=              2.3432
  YYZ=             -0.6363  XYZ=             -0.7327
 Hexadecapole moment (field-independent basis, Debye-Ang**3):
 XXXX=          -3083.7005 YYYY=          -1138.0217 ZZZZ=            -58.7200 XXXY=            -73.0000
 XXXZ=              5.4416 YYYX=           -121.2375 YYYZ=              2.7172 ZZZX=             -0.2003
 ZZZY=              0.0475 XXYY=           -657.4944 XXZZ=           -400.6764 YYZZ=           -182.3836
 XXYZ=              2.5841 YYXZ=              2.0828 ZZXY=              3.8083
 N-N= 7.030570853532D+02 E-N=-2.728194571548D+03  KE= 5.546874645342D+02
 1\1\GINC-N043\FOpt\RB3LYP\STO-3G\C12H5N2(1-)\R2532\15-Jun-2021\0\\#N B
 3LYP/STO-3G OPT\\2Naph\\-1,1\N,1.7036532319,-1.8156721711,1.1108923785
 \C,2.8452584974,-1.9840711529,0.7800498242\C,5.2126359915,-1.214008042
 7,0.485897484\C,4.223760323,-2.2292671903,0.3660517001\C,4.587465511,-
 3.5163320303,-0.1515711452\C,5.9022962255,-3.7615550179,-0.5381514895\
 C,6.9612723099,-2.7857499988,-0.4592514569\C,6.5831269884,-1.463488328
 5,0.0722433991\C,7.6120407471,-0.4828166608,0.2149458955\C,8.916468733
 5,-0.8316104604,-0.1381586554\C,9.2232581833,-2.1178471908,-0.67597452
 75\C,8.3092358256,-3.187118532,-0.9203122933\N,4.563023495,1.150560341
 1,1.5208125931\C,4.8453333528,0.0757679046,1.0650359881\H,3.8149644339
 ,-4.2912988063,-0.229377381\H,6.1716464245,-4.7572029975,-0.9215520206
 \H,7.3673197895,0.5130138523,0.6029215824\H,9.7092263066,-0.0734564982
 ,-0.0276195814\H,10.2833136298,-2.2520070193,-0.9602122944\\Version=ES
 64L-G09RevD.01\State=1-A\HF=-562.5056566\RMSD=5.738e-09\RMSF=3.194e-05
 \Dipole=-0.455883,-0.0573946,0.1271257\Quadrupole=-14.9121687,3.950968
 3,10.9612004,10.0439187,10.8943594,-6.9539042\PG=C01 [X(C12H5N2)]\\@


 WHEN YOU REACH FOR THE STARS, YOU MAY NOT QUITE GET ONE,
 BUT YOU WON'T COME UP WITH A HANDFUL OF MUD, EITHER.

                                         -- LEO BURNETT (AD AGENCY HEAD)
 Job cpu time:       0 days  0 hours  6 minutes 48.5 seconds.
 File lengths (MBytes):  RWF=      5 Int=      0 D2E=      0 Chk=      2 Scr=      1
 Normal termination of Gaussian 09 at Tue Jun 15 11:15:44 2021.
