 Entering Gaussian System, Link 0=/usr/local/apps//g09/g09
 Input=26.com
 Output=26.out
 Initial command:
 /usr/local/apps//g09/l1.exe "/tmp/bnp.472681.sequoia/Gau-13674.inp" -scrdir="/tmp/bnp.472681.sequoia/"
 Entering Link 1 = /usr/local/apps//g09/l1.exe PID=     13675.
  
 Copyright (c) 1988,1990,1992,1993,1995,1998,2003,2009,2013,
            Gaussian, Inc.  All Rights Reserved.
  
 This is part of the Gaussian(R) 09 program.  It is based on
 the Gaussian(R) 03 system (copyright 2003, Gaussian, Inc.),
 the Gaussian(R) 98 system (copyright 1998, Gaussian, Inc.),
 the Gaussian(R) 94 system (copyright 1995, Gaussian, Inc.),
 the Gaussian 92(TM) system (copyright 1992, Gaussian, Inc.),
 the Gaussian 90(TM) system (copyright 1990, Gaussian, Inc.),
 the Gaussian 88(TM) system (copyright 1988, Gaussian, Inc.),
 the Gaussian 86(TM) system (copyright 1986, Carnegie Mellon
 University), and the Gaussian 82(TM) system (copyright 1983,
 Carnegie Mellon University). Gaussian is a federally registered
 trademark of Gaussian, Inc.
  
 This software contains proprietary and confidential information,
 including trade secrets, belonging to Gaussian, Inc.
  
 This software is provided under written license and may be
 used, copied, transmitted, or stored only in accord with that
 written license.
  
 The following legend is applicable only to US Government
 contracts under FAR:
  
                    RESTRICTED RIGHTS LEGEND
  
 Use, reproduction and disclosure by the US Government is
 subject to restrictions as set forth in subparagraphs (a)
 and (c) of the Commercial Computer Software - Restricted
 Rights clause in FAR 52.227-19.
  
 Gaussian, Inc.
 340 Quinnipiac St., Bldg. 40, Wallingford CT 06492
  
  
 ---------------------------------------------------------------
 Warning -- This program may not be used in any manner that
 competes with the business of Gaussian, Inc. or will provide
 assistance to any competitor of Gaussian, Inc.  The licensee
 of this program is prohibited from giving any competitor of
 Gaussian, Inc. access to this program.  By using this program,
 the user acknowledges that Gaussian, Inc. is engaged in the
 business of creating and licensing software in the field of
 computational chemistry and represents and warrants to the
 licensee that it is not a competitor of Gaussian, Inc. and that
 it will not use this program in any manner prohibited above.
 ---------------------------------------------------------------
  

 Cite this work as:
 Gaussian 09, Revision D.01,
 M. J. Frisch, G. W. Trucks, H. B. Schlegel, G. E. Scuseria, 
 M. A. Robb, J. R. Cheeseman, G. Scalmani, V. Barone, B. Mennucci, 
 G. A. Petersson, H. Nakatsuji, M. Caricato, X. Li, H. P. Hratchian, 
 A. F. Izmaylov, J. Bloino, G. Zheng, J. L. Sonnenberg, M. Hada, 
 M. Ehara, K. Toyota, R. Fukuda, J. Hasegawa, M. Ishida, T. Nakajima, 
 Y. Honda, O. Kitao, H. Nakai, T. Vreven, J. A. Montgomery, Jr., 
 J. E. Peralta, F. Ogliaro, M. Bearpark, J. J. Heyd, E. Brothers, 
 K. N. Kudin, V. N. Staroverov, T. Keith, R. Kobayashi, J. Normand, 
 K. Raghavachari, A. Rendell, J. C. Burant, S. S. Iyengar, J. Tomasi, 
 M. Cossi, N. Rega, J. M. Millam, M. Klene, J. E. Knox, J. B. Cross, 
 V. Bakken, C. Adamo, J. Jaramillo, R. Gomperts, R. E. Stratmann, 
 O. Yazyev, A. J. Austin, R. Cammi, C. Pomelli, J. W. Ochterski, 
 R. L. Martin, K. Morokuma, V. G. Zakrzewski, G. A. Voth, 
 P. Salvador, J. J. Dannenberg, S. Dapprich, A. D. Daniels, 
 O. Farkas, J. B. Foresman, J. V. Ortiz, J. Cioslowski, 
 and D. J. Fox, Gaussian, Inc., Wallingford CT, 2013.
 
 ******************************************
 Gaussian 09:  ES64L-G09RevD.01 24-Apr-2013
                15-Jun-2021 
 ******************************************
 -------------------
 #N B3LYP/STO-3G OPT
 -------------------
 1/14=-1,18=20,19=15,26=3,38=1/1,3;
 2/9=110,12=2,17=6,18=5,40=1/2;
 3/6=3,11=2,16=1,25=1,30=1,71=1,74=-5/1,2,3;
 4//1;
 5/5=2,38=5/2;
 6/7=2,8=2,9=2,10=2,28=1/1;
 7//1,2,3,16;
 1/14=-1,18=20,19=15,26=3/3(2);
 2/9=110/2;
 99//99;
 2/9=110/2;
 3/6=3,11=2,16=1,25=1,30=1,71=1,74=-5/1,2,3;
 4/5=5,16=3,69=1/1;
 5/5=2,38=5/2;
 7//1,2,3,16;
 1/14=-1,18=20,19=15,26=3/3(-5);
 2/9=110/2;
 6/7=2,8=2,9=2,10=2,19=2,28=1/1;
 99/9=1/99;
 -----
 1Naph
 -----
 Symbolic Z-matrix:
 Charge = -1 Multiplicity = 1
 N                     1.21073  -1.13653  -2.26839 
 C                     2.35332  -1.21037  -2.07809 
 C                     3.76877  -1.29466  -1.84629 
 C                     4.51178  -2.18484  -2.63717 
 C                     5.88719  -2.29863  -2.46094 
 C                     6.52842  -1.49835  -1.52231 
 C                     5.81361  -0.59604  -0.73128 
 C                     4.4056   -0.49473  -0.85946 
 C                     3.73054   0.40221   0.00491 
 C                     4.42845   1.18163   0.938 
 C                     5.81771   1.09254   1.01488 
 C                     6.5051    0.20306   0.18624 
 N                     3.14323   2.76763   2.54019 
 C                     3.71602   2.06229   1.81862 
 H                     4.01959  -2.7952   -3.39319 
 H                     6.46559  -3.0018   -3.05407 
 H                     2.64429   0.49326  -0.03721 
 H                     6.37512   1.70684   1.71848 
 H                     7.58926   0.13764   0.26587 
 

 GradGradGradGradGradGradGradGradGradGradGradGradGradGradGradGradGradGrad
 Berny optimization.
 Initialization pass.
                           ----------------------------
                           !    Initial Parameters    !
                           ! (Angstroms and Degrees)  !
 --------------------------                            --------------------------
 ! Name  Definition              Value          Derivative Info.                !
 --------------------------------------------------------------------------------
 ! R1    R(1,2)                  1.1607         estimate D2E/DX2                !
 ! R2    R(2,3)                  1.4368         estimate D2E/DX2                !
 ! R3    R(3,4)                  1.4036         estimate D2E/DX2                !
 ! R4    R(3,8)                  1.421          estimate D2E/DX2                !
 ! R5    R(4,5)                  1.3913         estimate D2E/DX2                !
 ! R6    R(4,15)                 1.0892         estimate D2E/DX2                !
 ! R7    R(5,6)                  1.3902         estimate D2E/DX2                !
 ! R8    R(5,16)                 1.0866         estimate D2E/DX2                !
 ! R9    R(6,7)                  1.3967         estimate D2E/DX2                !
 ! R10   R(7,8)                  1.4175         estimate D2E/DX2                !
 ! R11   R(7,12)                 1.3995         estimate D2E/DX2                !
 ! R12   R(8,9)                  1.4168         estimate D2E/DX2                !
 ! R13   R(9,10)                 1.4019         estimate D2E/DX2                !
 ! R14   R(9,17)                 1.0909         estimate D2E/DX2                !
 ! R15   R(10,11)                1.3942         estimate D2E/DX2                !
 ! R16   R(10,14)                1.4348         estimate D2E/DX2                !
 ! R17   R(11,12)                1.3965         estimate D2E/DX2                !
 ! R18   R(11,18)                1.0877         estimate D2E/DX2                !
 ! R19   R(12,19)                1.089          estimate D2E/DX2                !
 ! R20   R(13,14)                1.1603         estimate D2E/DX2                !
 ! A1    A(2,3,4)              117.8927         estimate D2E/DX2                !
 ! A2    A(2,3,8)              121.3667         estimate D2E/DX2                !
 ! A3    A(4,3,8)              120.7371         estimate D2E/DX2                !
 ! A4    A(3,4,5)              120.2532         estimate D2E/DX2                !
 ! A5    A(3,4,15)             120.4847         estimate D2E/DX2                !
 ! A6    A(5,4,15)             119.262          estimate D2E/DX2                !
 ! A7    A(4,5,6)              119.6314         estimate D2E/DX2                !
 ! A8    A(4,5,16)             120.6626         estimate D2E/DX2                !
 ! A9    A(6,5,16)             119.7048         estimate D2E/DX2                !
 ! A10   A(5,6,7)              121.2124         estimate D2E/DX2                !
 ! A11   A(6,7,8)              120.2201         estimate D2E/DX2                !
 ! A12   A(6,7,12)             119.1637         estimate D2E/DX2                !
 ! A13   A(8,7,12)             120.6162         estimate D2E/DX2                !
 ! A14   A(3,8,7)              117.8871         estimate D2E/DX2                !
 ! A15   A(3,8,9)              124.508          estimate D2E/DX2                !
 ! A16   A(7,8,9)              117.6046         estimate D2E/DX2                !
 ! A17   A(8,9,10)             121.3892         estimate D2E/DX2                !
 ! A18   A(8,9,17)             120.2471         estimate D2E/DX2                !
 ! A19   A(10,9,17)            118.3612         estimate D2E/DX2                !
 ! A20   A(9,10,11)            119.8177         estimate D2E/DX2                !
 ! A21   A(9,10,14)            120.1712         estimate D2E/DX2                !
 ! A22   A(11,10,14)           120.0097         estimate D2E/DX2                !
 ! A23   A(10,11,12)           119.8964         estimate D2E/DX2                !
 ! A24   A(10,11,18)           120.678          estimate D2E/DX2                !
 ! A25   A(12,11,18)           119.4251         estimate D2E/DX2                !
 ! A26   A(7,12,11)            120.6294         estimate D2E/DX2                !
 ! A27   A(7,12,19)            120.3661         estimate D2E/DX2                !
 ! A28   A(11,12,19)           119.0043         estimate D2E/DX2                !
 ! A29   L(1,2,3,13,-1)        179.9221         estimate D2E/DX2                !
 ! A30   L(10,14,13,1,-1)      180.2595         estimate D2E/DX2                !
 ! A31   L(1,2,3,13,-2)        180.3215         estimate D2E/DX2                !
 ! A32   L(10,14,13,1,-2)      179.3484         estimate D2E/DX2                !
 ! D1    D(2,3,4,5)            179.5318         estimate D2E/DX2                !
 ! D2    D(2,3,4,15)            -0.6001         estimate D2E/DX2                !
 ! D3    D(8,3,4,5)              0.2032         estimate D2E/DX2                !
 ! D4    D(8,3,4,15)          -179.9287         estimate D2E/DX2                !
 ! D5    D(2,3,8,7)           -177.3855         estimate D2E/DX2                !
 ! D6    D(2,3,8,9)              2.4207         estimate D2E/DX2                !
 ! D7    D(4,3,8,7)              1.9196         estimate D2E/DX2                !
 ! D8    D(4,3,8,9)           -178.2742         estimate D2E/DX2                !
 ! D9    D(3,4,5,6)             -1.7924         estimate D2E/DX2                !
 ! D10   D(3,4,5,16)           178.6146         estimate D2E/DX2                !
 ! D11   D(15,4,5,6)           178.3379         estimate D2E/DX2                !
 ! D12   D(15,4,5,16)           -1.2552         estimate D2E/DX2                !
 ! D13   D(4,5,6,7)              1.217          estimate D2E/DX2                !
 ! D14   D(16,5,6,7)          -179.1861         estimate D2E/DX2                !
 ! D15   D(5,6,7,8)              0.9665         estimate D2E/DX2                !
 ! D16   D(5,6,7,12)          -179.05           estimate D2E/DX2                !
 ! D17   D(6,7,8,3)             -2.4897         estimate D2E/DX2                !
 ! D18   D(6,7,8,9)            177.6905         estimate D2E/DX2                !
 ! D19   D(12,7,8,3)           177.527          estimate D2E/DX2                !
 ! D20   D(12,7,8,9)            -2.2928         estimate D2E/DX2                !
 ! D21   D(6,7,12,11)         -178.4631         estimate D2E/DX2                !
 ! D22   D(6,7,12,19)            1.3716         estimate D2E/DX2                !
 ! D23   D(8,7,12,11)            1.5204         estimate D2E/DX2                !
 ! D24   D(8,7,12,19)         -178.6449         estimate D2E/DX2                !
 ! D25   D(3,8,9,10)          -178.6553         estimate D2E/DX2                !
 ! D26   D(3,8,9,17)             1.9361         estimate D2E/DX2                !
 ! D27   D(7,8,9,10)             1.1515         estimate D2E/DX2                !
 ! D28   D(7,8,9,17)          -178.2572         estimate D2E/DX2                !
 ! D29   D(8,9,10,11)            0.7911         estimate D2E/DX2                !
 ! D30   D(8,9,10,14)         -178.7768         estimate D2E/DX2                !
 ! D31   D(17,9,10,11)        -179.7895         estimate D2E/DX2                !
 ! D32   D(17,9,10,14)           0.6427         estimate D2E/DX2                !
 ! D33   D(9,10,11,12)          -1.6242         estimate D2E/DX2                !
 ! D34   D(9,10,11,18)         178.6462         estimate D2E/DX2                !
 ! D35   D(14,10,11,12)        177.9443         estimate D2E/DX2                !
 ! D36   D(14,10,11,18)         -1.7853         estimate D2E/DX2                !
 ! D37   D(10,11,12,7)           0.4826         estimate D2E/DX2                !
 ! D38   D(10,11,12,19)       -179.3543         estimate D2E/DX2                !
 ! D39   D(18,11,12,7)        -179.7844         estimate D2E/DX2                !
 ! D40   D(18,11,12,19)          0.3787         estimate D2E/DX2                !
 --------------------------------------------------------------------------------
 Trust Radius=3.00D-01 FncErr=1.00D-07 GrdErr=1.00D-06
 Number of steps in this run=    102 maximum allowed number of steps=    114.
 GradGradGradGradGradGradGradGradGradGradGradGradGradGradGradGradGradGrad

                          Input orientation:                          
 ---------------------------------------------------------------------
 Center     Atomic      Atomic             Coordinates (Angstroms)
 Number     Number       Type             X           Y           Z
 ---------------------------------------------------------------------
      1          7           0        1.210730   -1.136530   -2.268390
      2          6           0        2.353320   -1.210370   -2.078090
      3          6           0        3.768770   -1.294660   -1.846290
      4          6           0        4.511780   -2.184840   -2.637170
      5          6           0        5.887190   -2.298630   -2.460940
      6          6           0        6.528420   -1.498350   -1.522310
      7          6           0        5.813610   -0.596040   -0.731280
      8          6           0        4.405600   -0.494730   -0.859460
      9          6           0        3.730540    0.402210    0.004910
     10          6           0        4.428450    1.181630    0.938000
     11          6           0        5.817710    1.092540    1.014880
     12          6           0        6.505100    0.203060    0.186240
     13          7           0        3.143230    2.767630    2.540190
     14          6           0        3.716020    2.062290    1.818620
     15          1           0        4.019590   -2.795200   -3.393190
     16          1           0        6.465590   -3.001800   -3.054070
     17          1           0        2.644290    0.493260   -0.037210
     18          1           0        6.375120    1.706840    1.718480
     19          1           0        7.589260    0.137640    0.265870
 ---------------------------------------------------------------------
                    Distance matrix (angstroms):
                    1          2          3          4          5
     1  N    0.000000
     2  C    1.160680   0.000000
     3  C    2.597449   1.436779   0.000000
     4  C    3.483085   2.433333   1.403558   0.000000
     5  C    4.822534   3.717408   2.423521   1.391315   0.000000
     6  C    5.381949   4.221763   2.786058   2.404375   1.390198
     7  C    4.882760   3.763629   2.431602   2.802046   2.428158
     8  C    3.550237   2.491797   1.421012   2.455198   2.830884
     9  C    3.726266   2.972547   2.511528   3.779385   4.245715
    10  C    5.099855   4.373171   3.784106   4.911406   5.078674
    11  C    6.080533   5.183807   4.252431   5.077809   4.856561
    12  C    5.987492   4.935813   3.723150   4.200837   3.694297
    13  N    6.488410   6.146296   6.011215   7.294172   7.629391
    14  C    5.763035   5.267979   4.970258   6.206884   6.484307
    15  H    3.450515   2.649081   2.169661   1.089200   2.145601
    16  H    5.631170   4.590482   3.412609   2.158380   1.086645
    17  H    3.112792   2.674362   2.780986   4.173671   4.917877
    18  H    7.116938   6.252914   5.339443   6.130978   5.809425
    19  H    6.980804   5.892907   4.594437   4.826224   4.033354
                    6          7          8          9         10
     6  C    0.000000
     7  C    1.396727   0.000000
     8  C    2.439875   1.417458   0.000000
     9  C    3.711154   2.424388   1.416807   0.000000
    10  C    4.200630   2.804510   2.457960   1.401867   0.000000
    11  C    3.695288   2.429073   2.833131   2.419271   1.394235
    12  C    2.411324   1.399486   2.447100   2.787602   2.415619
    13  N    6.794263   5.398863   4.877929   3.516787   2.595034
    14  C    5.634675   4.238938   3.766429   2.458784   1.434786
    15  H    3.387660   3.891089   3.443974   4.674833   5.894196
    16  H    2.147230   3.407068   3.917304   5.331523   6.130877
    17  H    4.610694   3.422411   2.180466   1.090873   2.146652
    18  H    4.560643   3.408794   3.920675   3.410599   2.162064
    19  H    2.645644   2.164608   3.435397   3.876573   3.395938
                   11         12         13         14         15
    11  C    0.000000
    12  C    1.396540   0.000000
    13  N    3.505045   4.839449   0.000000
    14  C    2.450207   3.728320   1.160283   0.000000
    15  H    6.146449   5.289579   8.180347   7.130942   0.000000
    16  H    5.808590   4.557664   8.695984   7.546406   2.478024
    17  H    3.396561   3.878144   3.473426   2.656043   4.895715
    18  H    1.087715   2.150816   3.499371   2.684620   7.207361
    19  H    2.147380   1.089047   5.644162   4.595356   5.893455
                   16         17         18         19
    16  H    0.000000
    17  H    5.993265   0.000000
    18  H    6.704976   4.298176   0.000000
    19  H    4.705393   4.966996   2.458984   0.000000
 Stoichiometry    C12H5N2(1-)
 Framework group  C1[X(C12H5N2)]
 Deg. of freedom    51
 Full point group                 C1      NOp   1
 Largest Abelian subgroup         C1      NOp   1
 Largest concise Abelian subgroup C1      NOp   1
                         Standard orientation:                         
 ---------------------------------------------------------------------
 Center     Atomic      Atomic             Coordinates (Angstroms)
 Number     Number       Type             X           Y           Z
 ---------------------------------------------------------------------
      1          7           0        1.793584    3.290157    0.067755
      2          6           0        1.731868    2.131725    0.030292
      3          6           0        1.653423    0.697605   -0.008226
      4          6           0        2.856215   -0.025367   -0.032243
      5          6           0        2.837593   -1.416281   -0.059989
      6          6           0        1.621035   -2.088208   -0.026030
      7          6           0        0.410571   -1.392290    0.010298
      8          6           0        0.401659    0.025028   -0.007475
      9          6           0       -0.857965    0.673526   -0.019339
     10          6           0       -2.054913   -0.055629    0.010284
     11          6           0       -2.017149   -1.448112    0.069085
     12          6           0       -0.788493   -2.111965    0.063933
     13          7           0       -4.338529    1.174229   -0.071850
     14          6           0       -3.316290    0.627004   -0.029100
     15          1           0        3.813418    0.494363   -0.031557
     16          1           0        3.764327   -1.982194   -0.101277
     17          1           0       -0.915222    1.762067   -0.061801
     18          1           0       -2.937021   -2.026795    0.114745
     19          1           0       -0.776206   -3.200358    0.099618
 ---------------------------------------------------------------------
 Rotational constants (GHZ):      1.1437607      0.5649155      0.3783570
 Standard basis: STO-3G (5D, 7F)
 There are    75 symmetry adapted cartesian basis functions of A   symmetry.
 There are    75 symmetry adapted basis functions of A   symmetry.
    75 basis functions,   225 primitive gaussians,    75 cartesian basis functions
    46 alpha electrons       46 beta electrons
       nuclear repulsion energy       708.2159258482 Hartrees.
 NAtoms=   19 NActive=   19 NUniq=   19 SFac= 1.00D+00 NAtFMM=   60 NAOKFM=F Big=F
 Integral buffers will be    131072 words long.
 Raffenetti 2 integral format.
 Two-electron integral symmetry is turned on.
 One-electron integrals computed using PRISM.
 NBasis=    75 RedAO= T EigKep=  1.55D-01  NBF=    75
 NBsUse=    75 1.00D-06 EigRej= -1.00D+00 NBFU=    75
 ExpMin= 1.69D-01 ExpMax= 9.91D+01 ExpMxC= 9.91D+01 IAcc=1 IRadAn=         1 AccDes= 0.00D+00
 Harris functional with IExCor=  402 and IRadAn=       1 diagonalized for initial guess.
 HarFok:  IExCor=  402 AccDes= 0.00D+00 IRadAn=         1 IDoV= 1 UseB2=F ITyADJ=14
 ICtDFT=  3500011 ScaDFX=  1.000000  1.000000  1.000000  1.000000
 FoFCou: FMM=F IPFlag=           0 FMFlag=      100000 FMFlg1=           0
         NFxFlg=           0 DoJE=T BraDBF=F KetDBF=T FulRan=T
         wScrn=  0.000000 ICntrl=     500 IOpCl=  0 I1Cent=   200000004 NGrid=           0
         NMat0=    1 NMatS0=      1 NMatT0=    0 NMatD0=    1 NMtDS0=    0 NMtDT0=    0
 Petite list used in FoFCou.
 Keep R1 ints in memory in canonical form, NReq=4993994.
 Requested convergence on RMS density matrix=1.00D-08 within 128 cycles.
 Requested convergence on MAX density matrix=1.00D-06.
 Requested convergence on             energy=1.00D-06.
 No special actions if energy rises.
 Integral accuracy reduced to 1.0D-05 until final iterations.
 Initial convergence to 1.0D-05 achieved.  Increase integral accuracy.
 SCF Done:  E(RB3LYP) =  -562.480241814     A.U. after   29 cycles
            NFock= 29  Conv=0.22D-08     -V/T= 2.0128

 **********************************************************************

            Population analysis using the SCF density.

 **********************************************************************

 Orbital symmetries:
       Occupied  (A) (A) (A) (A) (A) (A) (A) (A) (A) (A) (A) (A)
                 (A) (A) (A) (A) (A) (A) (A) (A) (A) (A) (A) (A)
                 (A) (A) (A) (A) (A) (A) (A) (A) (A) (A) (A) (A)
                 (A) (A) (A) (A) (A) (A) (A) (A) (A) (A)
       Virtual   (A) (A) (A) (A) (A) (A) (A) (A) (A) (A) (A) (A)
                 (A) (A) (A) (A) (A) (A) (A) (A) (A) (A) (A) (A)
                 (A) (A) (A) (A) (A)
 The electronic state is 1-A.
 Alpha  occ. eigenvalues --  -13.99600 -13.96314  -9.90581  -9.90243  -9.87408
 Alpha  occ. eigenvalues --   -9.87228  -9.86829  -9.86782  -9.86587  -9.85996
 Alpha  occ. eigenvalues --   -9.85241  -9.83235  -9.79763  -9.65539  -0.74771
 Alpha  occ. eigenvalues --   -0.72212  -0.68176  -0.63254  -0.57840  -0.55815
 Alpha  occ. eigenvalues --   -0.51980  -0.45371  -0.42999  -0.39780  -0.35787
 Alpha  occ. eigenvalues --   -0.33399  -0.31071  -0.26379  -0.25096  -0.22865
 Alpha  occ. eigenvalues --   -0.22004  -0.21700  -0.20750  -0.18677  -0.17679
 Alpha  occ. eigenvalues --   -0.15509  -0.15041  -0.14830  -0.13200  -0.12795
 Alpha  occ. eigenvalues --   -0.11024  -0.10561  -0.06979  -0.04299   0.01868
 Alpha  occ. eigenvalues --    0.14346
 Alpha virt. eigenvalues --    0.17480   0.21775   0.25390   0.27051   0.29486
 Alpha virt. eigenvalues --    0.30311   0.37593   0.38690   0.44935   0.48431
 Alpha virt. eigenvalues --    0.48912   0.53598   0.55753   0.56817   0.60206
 Alpha virt. eigenvalues --    0.62560   0.64565   0.64923   0.70426   0.72821
 Alpha virt. eigenvalues --    0.75064   0.77351   0.82326   0.86750   0.87990
 Alpha virt. eigenvalues --    0.98307   1.00180   1.14035   1.16709
          Condensed to atoms (all electrons):
               1          2          3          4          5          6
     1  N    6.601869   0.684914  -0.012012  -0.000196  -0.000001   0.000000
     2  C    0.684914   4.903142   0.431217  -0.033245   0.000989   0.000015
     3  C   -0.012012   0.431217   4.800431   0.501958  -0.032664  -0.013074
     4  C   -0.000196  -0.033245   0.501958   4.845792   0.486330  -0.029027
     5  C   -0.000001   0.000989  -0.032664   0.486330   4.885400   0.484011
     6  C    0.000000   0.000015  -0.013074  -0.029027   0.484011   5.426120
     7  C   -0.000002   0.000887  -0.032811  -0.011959  -0.029543   0.451621
     8  C   -0.000047  -0.029250   0.472959  -0.027023  -0.011112  -0.029701
     9  C   -0.000088  -0.004326  -0.028819   0.000750   0.000051   0.001153
    10  C    0.000000   0.000014   0.000788  -0.000007   0.000000   0.000037
    11  C    0.000000   0.000000   0.000036   0.000001  -0.000017   0.001111
    12  C    0.000000  -0.000008   0.000943  -0.000021   0.001428  -0.042881
    13  N    0.000000   0.000000   0.000000   0.000000   0.000000   0.000000
    14  C    0.000000   0.000000  -0.000006   0.000000   0.000000   0.000000
    15  H    0.000043  -0.004015  -0.026440   0.381266  -0.025877   0.001745
    16  H    0.000000  -0.000021   0.001374  -0.033628   0.387832  -0.035509
    17  H   -0.000092   0.001367  -0.003292   0.000013  -0.000002  -0.000029
    18  H    0.000000   0.000000   0.000001   0.000000   0.000000  -0.000026
    19  H    0.000000   0.000000  -0.000017   0.000000   0.000038  -0.002144
               7          8          9         10         11         12
     1  N   -0.000002  -0.000047  -0.000088   0.000000   0.000000   0.000000
     2  C    0.000887  -0.029250  -0.004326   0.000014   0.000000  -0.000008
     3  C   -0.032811   0.472959  -0.028819   0.000788   0.000036   0.000943
     4  C   -0.011959  -0.027023   0.000750  -0.000007   0.000001  -0.000021
     5  C   -0.029543  -0.011112   0.000051   0.000000  -0.000017   0.001428
     6  C    0.451621  -0.029701   0.001153   0.000037   0.001111  -0.042881
     7  C    4.829491   0.449131  -0.028406  -0.010635  -0.029950   0.480294
     8  C    0.449131   4.800258   0.480293  -0.027441  -0.009070  -0.035604
     9  C   -0.028406   0.480293   4.840985   0.504395  -0.031620  -0.011293
    10  C   -0.010635  -0.027441   0.504395   4.754006   0.481579  -0.030141
    11  C   -0.029950  -0.009070  -0.031620   0.481579   4.840458   0.515304
    12  C    0.480294  -0.035604  -0.011293  -0.030141   0.515304   4.831236
    13  N    0.000000  -0.000001  -0.000163  -0.011469  -0.000133  -0.000001
    14  C    0.000016   0.000926  -0.030679   0.429032  -0.031939   0.001030
    15  H    0.000090   0.001276  -0.000014   0.000000   0.000000   0.000002
    16  H    0.002047  -0.000045   0.000001   0.000000   0.000000  -0.000004
    17  H    0.001403  -0.024359   0.385891  -0.027261   0.001444   0.000022
    18  H    0.001473   0.000018   0.001423  -0.026100   0.390227  -0.025754
    19  H   -0.024351   0.001511   0.000028   0.001485  -0.027257   0.389064
              13         14         15         16         17         18
     1  N    0.000000   0.000000   0.000043   0.000000  -0.000092   0.000000
     2  C    0.000000   0.000000  -0.004015  -0.000021   0.001367   0.000000
     3  C    0.000000  -0.000006  -0.026440   0.001374  -0.003292   0.000001
     4  C    0.000000   0.000000   0.381266  -0.033628   0.000013   0.000000
     5  C    0.000000   0.000000  -0.025877   0.387832  -0.000002   0.000000
     6  C    0.000000   0.000000   0.001745  -0.035509  -0.000029  -0.000026
     7  C    0.000000   0.000016   0.000090   0.002047   0.001403   0.001473
     8  C   -0.000001   0.000926   0.001276  -0.000045  -0.024359   0.000018
     9  C   -0.000163  -0.030679  -0.000014   0.000001   0.385891   0.001423
    10  C   -0.011469   0.429032   0.000000   0.000000  -0.027261  -0.026100
    11  C   -0.000133  -0.031939   0.000000   0.000000   0.001444   0.390227
    12  C   -0.000001   0.001030   0.000002  -0.000004   0.000022  -0.025754
    13  N    6.575789   0.687319   0.000000   0.000000   0.000062   0.000061
    14  C    0.687319   4.892546   0.000000   0.000000  -0.003927  -0.003749
    15  H    0.000000   0.000000   0.625889  -0.003029  -0.000002   0.000000
    16  H    0.000000   0.000000  -0.003029   0.655022   0.000000   0.000000
    17  H    0.000062  -0.003927  -0.000002   0.000000   0.598537  -0.000040
    18  H    0.000061  -0.003749   0.000000   0.000000  -0.000040   0.608653
    19  H    0.000000  -0.000021   0.000000  -0.000005   0.000002  -0.004020
              19
     1  N    0.000000
     2  C    0.000000
     3  C   -0.000017
     4  C    0.000000
     5  C    0.000038
     6  C   -0.002144
     7  C   -0.024351
     8  C    0.001511
     9  C    0.000028
    10  C    0.001485
    11  C   -0.027257
    12  C    0.389064
    13  N    0.000000
    14  C   -0.000021
    15  H    0.000000
    16  H   -0.000005
    17  H    0.000002
    18  H   -0.004020
    19  H    0.595731
 Mulliken charges:
               1
     1  N   -0.274388
     2  C    0.048322
     3  C   -0.060571
     4  C   -0.081004
     5  C   -0.146862
     6  C   -0.213421
     7  C   -0.048795
     8  C   -0.012718
     9  C   -0.079562
    10  C   -0.038284
    11  C   -0.100172
    12  C   -0.073614
    13  N   -0.251464
    14  C    0.059452
    15  H    0.049066
    16  H    0.025966
    17  H    0.070264
    18  H    0.057832
    19  H    0.069955
 Sum of Mulliken charges =  -1.00000
 Mulliken charges with hydrogens summed into heavy atoms:
               1
     1  N   -0.274388
     2  C    0.048322
     3  C   -0.060571
     4  C   -0.031939
     5  C   -0.120896
     6  C   -0.213421
     7  C   -0.048795
     8  C   -0.012718
     9  C   -0.009298
    10  C   -0.038284
    11  C   -0.042340
    12  C   -0.003659
    13  N   -0.251464
    14  C    0.059452
 Electronic spatial extent (au):  <R**2>=           2706.3421
 Charge=             -1.0000 electrons
 Dipole moment (field-independent basis, Debye):
    X=             -0.9525    Y=             -0.7672    Z=              0.1831  Tot=              1.2367
 Quadrupole moment (field-independent basis, Debye-Ang):
   XX=           -109.1011   YY=           -104.1192   ZZ=            -73.9142
   XY=              8.1526   XZ=             -0.3359   YZ=             -0.8313
 Traceless Quadrupole moment (field-independent basis, Debye-Ang):
   XX=            -13.3896   YY=             -8.4077   ZZ=             21.7973
   XY=              8.1526   XZ=             -0.3359   YZ=             -0.8313
 Octapole moment (field-independent basis, Debye-Ang**2):
  XXX=             93.4979  YYY=            -27.0497  ZZZ=              0.0553  XYY=            -48.4386
  XXY=            -32.5559  XXZ=              2.7787  XZZ=             -2.6352  YZZ=              4.2582
  YYZ=              0.3078  XYZ=             -2.0500
 Hexadecapole moment (field-independent basis, Debye-Ang**3):
 XXXX=          -2839.9142 YYYY=          -1465.9872 ZZZZ=            -59.0459 XXXY=            200.3686
 XXXZ=            -10.5632 YYYX=            -38.1623 YYYZ=            -10.1325 ZZZX=              1.4647
 ZZZY=              0.1394 XXYY=           -703.0629 XXZZ=           -387.6369 YYZZ=           -201.3764
 XXYZ=              0.1981 YYXZ=             -1.5970 ZZXY=              0.5730
 N-N= 7.082159258482D+02 E-N=-2.738680625716D+03  KE= 5.553562292341D+02
 Calling FoFJK, ICntrl=      2127 FMM=F ISym2X=0 I1Cent= 0 IOpClX= 0 NMat=1 NMatS=1 NMatT=0.
 ***** Axes restored to original set *****
 -------------------------------------------------------------------
 Center     Atomic                   Forces (Hartrees/Bohr)
 Number     Number              X              Y              Z
 -------------------------------------------------------------------
      1        7          -0.103063139    0.005985104   -0.018157398
      2        6           0.086738071   -0.003382444    0.019525048
      3        6          -0.016666332   -0.011124473   -0.013863753
      4        6          -0.002540326   -0.005914306   -0.015586631
      5        6          -0.006298922    0.020648825    0.010340827
      6        6           0.088340172   -0.031424806   -0.003897858
      7        6          -0.006830472   -0.015466104   -0.024052766
      8        6          -0.020555437    0.017661607    0.024366605
      9        6          -0.016412820    0.000347162    0.001955194
     10        6          -0.023121995   -0.005778539   -0.008979108
     11        6           0.045905037   -0.007405081   -0.003255066
     12        6          -0.003109862    0.034737506    0.030880502
     13        7          -0.051336240    0.063975009    0.064832991
     14        6           0.039538457   -0.050544350   -0.051926473
     15        1          -0.012901721   -0.003635158   -0.005001382
     16        1           0.000868712   -0.013002290   -0.008280406
     17        1          -0.007105220    0.002219864   -0.002940484
     18        1           0.001243065    0.005147874    0.006592563
     19        1           0.007308973   -0.003045401   -0.002552405
 -------------------------------------------------------------------
 Cartesian Forces:  Max     0.103063139 RMS     0.031066548

 GradGradGradGradGradGradGradGradGradGradGradGradGradGradGradGradGradGrad
 Berny optimization.
 FormGI is forming the generalized inverse of G from B-inverse, IUseBI=4.
 Internal  Forces:  Max     0.104813667 RMS     0.021009895
 Search for a local minimum.
 Step number   1 out of a maximum of  102
 All quantities printed in internal units (Hartrees-Bohrs-Radians)
 Mixed Optimization -- RFO/linear search
 Second derivative matrix not updated -- first step.
 ITU=  0
     Eigenvalues ---    0.01602   0.01602   0.01873   0.01883   0.01927
     Eigenvalues ---    0.01954   0.01982   0.02053   0.02064   0.02109
     Eigenvalues ---    0.02115   0.02117   0.02133   0.02151   0.02180
     Eigenvalues ---    0.02209   0.04863   0.04863   0.15999   0.16000
     Eigenvalues ---    0.16000   0.16000   0.16000   0.22411   0.22431
     Eigenvalues ---    0.23510   0.24444   0.24608   0.24995   0.24999
     Eigenvalues ---    0.24999   0.34712   0.34905   0.34923   0.35078
     Eigenvalues ---    0.35203   0.38207   0.40030   0.40309   0.40554
     Eigenvalues ---    0.40936   0.43167   0.43784   0.45147   0.45513
     Eigenvalues ---    0.45688   0.45831   0.46281   0.46995   1.27350
     Eigenvalues ---    1.27609
 RFO step:  Lambda=-6.10465865D-02 EMin= 1.60223615D-02
 Linear search not attempted -- first point.
 Maximum step size (   0.300) exceeded in Quadratic search.
    -- Step size scaled by   0.856
 Iteration  1 RMS(Cart)=  0.04817571 RMS(Int)=  0.00136138
 Iteration  2 RMS(Cart)=  0.00222406 RMS(Int)=  0.00041256
 Iteration  3 RMS(Cart)=  0.00000186 RMS(Int)=  0.00041256
 Iteration  4 RMS(Cart)=  0.00000000 RMS(Int)=  0.00041256
 Variable       Old X    -DE/DX   Delta X   Delta X   Delta X     New X
                                 (Linear)    (Quad)   (Total)
    R1        2.19337   0.10481   0.00000   0.06725   0.06725   2.26061
    R2        2.71512   0.01601   0.00000   0.02972   0.02972   2.74484
    R3        2.65234   0.01203   0.00000   0.01765   0.01732   2.66966
    R4        2.68532   0.02319   0.00000   0.04062   0.04011   2.72543
    R5        2.62920   0.03441   0.00000   0.05331   0.05349   2.68270
    R6        2.05829   0.01134   0.00000   0.02367   0.02367   2.08196
    R7        2.62709   0.02861   0.00000   0.04619   0.04670   2.67379
    R8        2.05346   0.01340   0.00000   0.02777   0.02777   2.08123
    R9        2.63943   0.05703   0.00000   0.09583   0.09615   2.73558
   R10        2.67861   0.05031   0.00000   0.09166   0.09165   2.77025
   R11        2.64465   0.04220   0.00000   0.07075   0.07096   2.71561
   R12        2.67738   0.01449   0.00000   0.02551   0.02544   2.70282
   R13        2.64914   0.01044   0.00000   0.01635   0.01613   2.66528
   R14        2.06145   0.00737   0.00000   0.01547   0.01547   2.07692
   R15        2.63472   0.04350   0.00000   0.06945   0.06930   2.70402
   R16        2.71135   0.02202   0.00000   0.04063   0.04063   2.75198
   R17        2.63908  -0.00033   0.00000  -0.00077  -0.00071   2.63837
   R18        2.05548   0.00781   0.00000   0.01623   0.01623   2.07172
   R19        2.05800   0.00727   0.00000   0.01518   0.01518   2.07318
   R20        2.19262   0.10455   0.00000   0.06695   0.06695   2.25957
    A1        2.05762   0.00772   0.00000   0.02420   0.02469   2.08230
    A2        2.11825  -0.00061   0.00000   0.00124   0.00173   2.11998
    A3        2.10726  -0.00711   0.00000  -0.02547  -0.02646   2.08080
    A4        2.09881   0.00724   0.00000   0.01215   0.01182   2.11064
    A5        2.10285  -0.01253   0.00000  -0.04060  -0.04056   2.06229
    A6        2.08151   0.00528   0.00000   0.02839   0.02838   2.10989
    A7        2.08796   0.02670   0.00000   0.07666   0.07718   2.16514
    A8        2.10596  -0.02046   0.00000  -0.06580  -0.06623   2.03973
    A9        2.08924  -0.00623   0.00000  -0.01068  -0.01115   2.07809
   A10        2.11556  -0.04547   0.00000  -0.12003  -0.11874   1.99682
   A11        2.09824   0.02037   0.00000   0.06058   0.06044   2.15867
   A12        2.07980   0.00120   0.00000  -0.00214  -0.00234   2.07746
   A13        2.10515  -0.02157   0.00000  -0.05844  -0.05812   2.04703
   A14        2.05752  -0.00176   0.00000  -0.00438  -0.00530   2.05221
   A15        2.17307  -0.01016   0.00000  -0.03047  -0.03011   2.14296
   A16        2.05259   0.01192   0.00000   0.03480   0.03524   2.08783
   A17        2.11864  -0.00279   0.00000  -0.00952  -0.00993   2.10871
   A18        2.09871   0.00053   0.00000   0.00146   0.00158   2.10029
   A19        2.06579   0.00228   0.00000   0.00824   0.00835   2.07415
   A20        2.09121   0.00247   0.00000   0.00333   0.00288   2.09410
   A21        2.09738  -0.00232   0.00000  -0.00463  -0.00442   2.09296
   A22        2.09456  -0.00015   0.00000   0.00135   0.00156   2.09612
   A23        2.09259   0.00098   0.00000   0.00058   0.00044   2.09303
   A24        2.10623  -0.00373   0.00000  -0.01284  -0.01277   2.09346
   A25        2.08436   0.00275   0.00000   0.01226   0.01233   2.09669
   A26        2.10538   0.00898   0.00000   0.02923   0.02946   2.13484
   A27        2.10078  -0.00864   0.00000  -0.03068  -0.03080   2.06999
   A28        2.07702  -0.00034   0.00000   0.00144   0.00132   2.07834
   A29        3.14023   0.00260   0.00000   0.02887   0.02887   3.16910
   A30        3.14612   0.00058   0.00000   0.00453   0.00453   3.15065
   A31        3.14720   0.00034   0.00000   0.00373   0.00373   3.15093
   A32        3.13022   0.00084   0.00000   0.00659   0.00659   3.13681
    D1        3.13342   0.00148   0.00000   0.01818   0.01772  -3.13205
    D2       -0.01047  -0.00107   0.00000  -0.00911  -0.00867  -0.01915
    D3        0.00355   0.00177   0.00000   0.02116   0.02139   0.02494
    D4       -3.14035  -0.00078   0.00000  -0.00613  -0.00500   3.13784
    D5       -3.09596  -0.00067   0.00000  -0.00428  -0.00436  -3.10033
    D6        0.04225  -0.00217   0.00000  -0.02163  -0.02156   0.02068
    D7        0.03350  -0.00091   0.00000  -0.00722  -0.00797   0.02553
    D8       -3.11147  -0.00241   0.00000  -0.02456  -0.02517  -3.13664
    D9       -0.03128  -0.00107   0.00000  -0.00926  -0.00864  -0.03992
   D10        3.11741  -0.00389   0.00000  -0.03940  -0.03881   3.07860
   D11        3.11258   0.00147   0.00000   0.01779   0.01857   3.13115
   D12       -0.02191  -0.00135   0.00000  -0.01235  -0.01161  -0.03351
   D13        0.02124  -0.00208   0.00000  -0.02090  -0.02056   0.00068
   D14       -3.12739   0.00065   0.00000   0.00872   0.01002  -3.11737
   D15        0.01687   0.00352   0.00000   0.03692   0.03658   0.05345
   D16       -3.12501   0.00280   0.00000   0.03081   0.02989  -3.09512
   D17       -0.04345  -0.00225   0.00000  -0.02300  -0.02394  -0.06740
   D18        3.10128  -0.00081   0.00000  -0.00675  -0.00718   3.09410
   D19        3.09843  -0.00151   0.00000  -0.01680  -0.01737   3.08106
   D20       -0.04002  -0.00008   0.00000  -0.00055  -0.00060  -0.04062
   D21       -3.11477   0.00084   0.00000   0.00848   0.00867  -3.10610
   D22        0.02394   0.00047   0.00000   0.00529   0.00542   0.02936
   D23        0.02654   0.00012   0.00000   0.00237   0.00242   0.02895
   D24       -3.11794  -0.00025   0.00000  -0.00083  -0.00083  -3.11877
   D25       -3.11812   0.00163   0.00000   0.01674   0.01702  -3.10110
   D26        0.03379  -0.00034   0.00000  -0.00340  -0.00316   0.03063
   D27        0.02010   0.00011   0.00000  -0.00063  -0.00060   0.01950
   D28       -3.11117  -0.00186   0.00000  -0.02076  -0.02077  -3.13195
   D29        0.01381   0.00017   0.00000   0.00123   0.00125   0.01506
   D30       -3.12024  -0.00082   0.00000  -0.00788  -0.00790  -3.12814
   D31       -3.13792   0.00209   0.00000   0.02096   0.02109  -3.11682
   D32        0.01122   0.00110   0.00000   0.01185   0.01195   0.02316
   D33       -0.02835  -0.00005   0.00000   0.00086   0.00082  -0.02753
   D34        3.11796  -0.00011   0.00000   0.00069   0.00066   3.11862
   D35        3.10571   0.00093   0.00000   0.00993   0.00995   3.11567
   D36       -0.03116   0.00087   0.00000   0.00975   0.00980  -0.02136
   D37        0.00842  -0.00054   0.00000  -0.00364  -0.00366   0.00476
   D38       -3.13032  -0.00016   0.00000  -0.00043  -0.00035  -3.13068
   D39       -3.13783  -0.00050   0.00000  -0.00353  -0.00357  -3.14140
   D40        0.00661  -0.00012   0.00000  -0.00032  -0.00026   0.00635
         Item               Value     Threshold  Converged?
 Maximum Force            0.104814     0.000450     NO 
 RMS     Force            0.021010     0.000300     NO 
 Maximum Displacement     0.246728     0.001800     NO 
 RMS     Displacement     0.047412     0.001200     NO 
 Predicted change in Energy=-3.291667D-02
 GradGradGradGradGradGradGradGradGradGradGradGradGradGradGradGradGradGrad

                          Input orientation:                          
 ---------------------------------------------------------------------
 Center     Atomic      Atomic             Coordinates (Angstroms)
 Number     Number       Type             X           Y           Z
 ---------------------------------------------------------------------
      1          7           0        1.138663   -1.146192   -2.272007
      2          6           0        2.315359   -1.208779   -2.065806
      3          6           0        3.749221   -1.302147   -1.853448
      4          6           0        4.512476   -2.174754   -2.660783
      5          6           0        5.914205   -2.301599   -2.475336
      6          6           0        6.658983   -1.557021   -1.530414
      7          6           0        5.871701   -0.631849   -0.743134
      8          6           0        4.414720   -0.509377   -0.849123
      9          6           0        3.716532    0.393253    0.013119
     10          6           0        4.414808    1.184713    0.948661
     11          6           0        5.841060    1.103695    1.030709
     12          6           0        6.536771    0.216758    0.206932
     13          7           0        3.090181    2.823351    2.558983
     14          6           0        3.682621    2.084950    1.828572
     15          1           0        3.985823   -2.774763   -3.420013
     16          1           0        6.433600   -3.045386   -3.099801
     17          1           0        2.623364    0.487693   -0.050086
     18          1           0        6.384982    1.734936    1.743149
     19          1           0        7.629250    0.158469    0.288615
 ---------------------------------------------------------------------
                    Distance matrix (angstroms):
                    1          2          3          4          5
     1  N    0.000000
     2  C    1.196265   0.000000
     3  C    2.648495   1.452506   0.000000
     4  C    3.548479   2.472737   1.412725   0.000000
     5  C    4.917531   3.783340   2.464306   1.419622   0.000000
     6  C    5.585040   4.390329   2.938712   2.503362   1.414910
     7  C    5.000365   3.837952   2.487372   2.811659   2.406324
     8  C    3.628041   2.525232   1.442235   2.462753   2.846943
     9  C    3.773208   2.975184   2.521810   3.791826   4.276027
    10  C    5.151596   4.384461   3.805167   4.931901   5.111391
    11  C    6.171099   5.231301   4.299097   5.112777   4.888122
    12  C    6.094452   5.001781   3.784531   4.247457   3.731524
    13  N    6.550127   6.184424   6.076481   7.365456   7.719106
    14  C    5.807474   5.280553   5.003412   6.244041   6.537997
    15  H    3.475124   2.660194   2.163031   1.101727   2.198853
    16  H    5.685820   4.626249   3.434846   2.154404   1.101339
    17  H    3.132228   2.652548   2.779064   4.180085   4.948902
    18  H    7.207374   6.303604   5.395055   6.179529   5.857547
    19  H    7.098356   5.970771   4.666526   4.884380   4.078326
                    6          7          8          9         10
     6  C    0.000000
     7  C    1.447607   0.000000
     8  C    2.568741   1.465956   0.000000
     9  C    3.852802   2.503499   1.430269   0.000000
    10  C    4.324261   2.878299   2.470216   1.410403   0.000000
    11  C    3.782560   2.481849   2.858359   2.460455   1.430906
    12  C    2.485880   1.437038   2.479037   2.832395   2.447412
    13  N    6.974753   5.529850   4.947391   3.574789   2.651964
    14  C    5.779746   4.334367   3.799546   2.481705   1.456285
    15  H    3.492744   3.913348   3.453317   4.679234   5.911581
    16  H    2.174628   3.419762   3.946235   5.375590   6.193489
    17  H    4.760089   3.505051   2.200356   1.099058   2.166242
    18  H    4.650620   3.470840   3.954586   3.451629   2.194435
    19  H    2.682012   2.185884   3.474719   3.929426   3.438237
                   11         12         13         14         15
    11  C    0.000000
    12  C    1.396166   0.000000
    13  N    3.586109   4.919904   0.000000
    14  C    2.501660   3.777040   1.195710   0.000000
    15  H    6.188155   5.348949   8.239506   7.159356   0.000000
    16  H    5.884479   4.646150   8.811491   7.627391   2.483422
    17  H    3.449804   3.931185   3.532769   2.683768   4.884293
    18  H    1.096306   2.165148   3.564541   2.726273   7.263028
    19  H    2.154479   1.097078   5.732305   4.653888   5.969282
                   16         17         18         19
    16  H    0.000000
    17  H    6.025057   0.000000
    18  H    6.804999   4.349837   0.000000
    19  H    4.814108   5.028121   2.479741   0.000000
 Stoichiometry    C12H5N2(1-)
 Framework group  C1[X(C12H5N2)]
 Deg. of freedom    51
 Full point group                 C1      NOp   1
 Largest Abelian subgroup         C1      NOp   1
 Largest concise Abelian subgroup C1      NOp   1
                         Standard orientation:                         
 ---------------------------------------------------------------------
 Center     Atomic      Atomic             Coordinates (Angstroms)
 Number     Number       Type             X           Y           Z
 ---------------------------------------------------------------------
      1          7           0        1.755506    3.386791    0.059173
      2          6           0        1.691873    2.192766    0.023069
      3          6           0        1.654425    0.741058   -0.007202
      4          6           0        2.867952    0.017781   -0.003535
      5          6           0        2.871773   -1.401255   -0.044139
      6          6           0        1.701863   -2.197044   -0.043663
      7          6           0        0.466263   -1.444168    0.001447
      8          6           0        0.405267    0.020337   -0.021579
      9          6           0       -0.866393    0.674890   -0.032123
     10          6           0       -2.063153   -0.070611    0.002971
     11          6           0       -2.014071   -1.499175    0.068449
     12          6           0       -0.781311   -2.154587    0.064228
     13          7           0       -4.406776    1.169200   -0.053663
     14          6           0       -3.347378    0.615481   -0.025495
     15          1           0        3.811857    0.585927    0.003850
     16          1           0        3.854656   -1.894936   -0.100411
     17          1           0       -0.925822    1.772023   -0.058526
     18          1           0       -2.944414   -2.077053    0.117495
     19          1           0       -0.760050   -3.250722    0.104452
 ---------------------------------------------------------------------
 Rotational constants (GHZ):      1.0853829      0.5554188      0.3675736
 Standard basis: STO-3G (5D, 7F)
 There are    75 symmetry adapted cartesian basis functions of A   symmetry.
 There are    75 symmetry adapted basis functions of A   symmetry.
    75 basis functions,   225 primitive gaussians,    75 cartesian basis functions
    46 alpha electrons       46 beta electrons
       nuclear repulsion energy       696.5298782550 Hartrees.
 NAtoms=   19 NActive=   19 NUniq=   19 SFac= 1.00D+00 NAtFMM=   60 NAOKFM=F Big=F
 Integral buffers will be    131072 words long.
 Raffenetti 2 integral format.
 Two-electron integral symmetry is turned on.
 One-electron integrals computed using PRISM.
 NBasis=    75 RedAO= T EigKep=  1.73D-01  NBF=    75
 NBsUse=    75 1.00D-06 EigRej= -1.00D+00 NBFU=    75
 Initial guess from the checkpoint file:  "/tmp/bnp.472681.sequoia/Gau-13675.chk"
 B after Tr=     0.000000    0.000000    0.000000
         Rot=    0.999982    0.000029    0.000039   -0.006024 Ang=   0.69 deg.
 ExpMin= 1.69D-01 ExpMax= 9.91D+01 ExpMxC= 9.91D+01 IAcc=1 IRadAn=         1 AccDes= 0.00D+00
 Harris functional with IExCor=  402 and IRadAn=       1 diagonalized for initial guess.
 HarFok:  IExCor=  402 AccDes= 0.00D+00 IRadAn=         1 IDoV= 1 UseB2=F ITyADJ=14
 ICtDFT=  3500011 ScaDFX=  1.000000  1.000000  1.000000  1.000000
 FoFCou: FMM=F IPFlag=           0 FMFlag=      100000 FMFlg1=           0
         NFxFlg=           0 DoJE=T BraDBF=F KetDBF=T FulRan=T
         wScrn=  0.000000 ICntrl=     500 IOpCl=  0 I1Cent=   200000004 NGrid=           0
         NMat0=    1 NMatS0=      1 NMatT0=    0 NMatD0=    1 NMtDS0=    0 NMtDT0=    0
 Petite list used in FoFCou.
 Keep R1 ints in memory in canonical form, NReq=4993994.
 Requested convergence on RMS density matrix=1.00D-08 within 128 cycles.
 Requested convergence on MAX density matrix=1.00D-06.
 Requested convergence on             energy=1.00D-06.
 No special actions if energy rises.
 Integral accuracy reduced to 1.0D-05 until final iterations.
 Initial convergence to 1.0D-05 achieved.  Increase integral accuracy.
 SCF Done:  E(RB3LYP) =  -562.511800310     A.U. after   20 cycles
            NFock= 20  Conv=0.84D-08     -V/T= 2.0139
 Calling FoFJK, ICntrl=      2127 FMM=F ISym2X=0 I1Cent= 0 IOpClX= 0 NMat=1 NMatS=1 NMatT=0.
 ***** Axes restored to original set *****
 -------------------------------------------------------------------
 Center     Atomic                   Forces (Hartrees/Bohr)
 Number     Number              X              Y              Z
 -------------------------------------------------------------------
      1        7          -0.010792429    0.000621776   -0.001574012
      2        6           0.009009256   -0.000290770    0.002636767
      3        6          -0.005438760   -0.004002022   -0.005561046
      4        6           0.004049792   -0.003738807   -0.004230037
      5        6          -0.014632691    0.008104396    0.005038498
      6        6           0.038723172   -0.009631062   -0.000025228
      7        6          -0.016074341   -0.002364961   -0.007851403
      8        6           0.003149449    0.007660746    0.009942514
      9        6          -0.000051415    0.002182898    0.003472382
     10        6          -0.006160111   -0.004328911   -0.005588723
     11        6           0.013175633   -0.004449834   -0.002897017
     12        6          -0.009290433    0.009882074    0.008277587
     13        7          -0.004842716    0.006055800    0.005810899
     14        6           0.003111230   -0.002898435   -0.003147196
     15        1          -0.001873188    0.000509826   -0.000411910
     16        1          -0.001726916   -0.002468051   -0.002588384
     17        1          -0.000633721   -0.000325877   -0.001365397
     18        1          -0.001534701    0.001089289    0.001566471
     19        1           0.001832889   -0.001608072   -0.001504767
 -------------------------------------------------------------------
 Cartesian Forces:  Max     0.038723172 RMS     0.007768621

 GradGradGradGradGradGradGradGradGradGradGradGradGradGradGradGradGradGrad
 Berny optimization.
 Using GEDIIS/GDIIS optimizer.
 FormGI is forming the generalized inverse of G from B-inverse, IUseBI=4.
 Internal  Forces:  Max     0.021475128 RMS     0.004596471
 Search for a local minimum.
 Step number   2 out of a maximum of  102
 All quantities printed in internal units (Hartrees-Bohrs-Radians)
 Mixed Optimization -- RFO/linear search
 Update second derivatives using D2CorX and points    1    2
 DE= -3.16D-02 DEPred=-3.29D-02 R= 9.59D-01
 TightC=F SS=  1.41D+00  RLast= 3.15D-01 DXNew= 5.0454D-01 9.4575D-01
 Trust test= 9.59D-01 RLast= 3.15D-01 DXMaxT set to 5.05D-01
 ITU=  1  0
 Use linear search instead of GDIIS.
     Eigenvalues ---    0.01602   0.01607   0.01879   0.01884   0.01928
     Eigenvalues ---    0.01955   0.01989   0.02055   0.02081   0.02110
     Eigenvalues ---    0.02116   0.02128   0.02133   0.02151   0.02187
     Eigenvalues ---    0.02223   0.04863   0.04864   0.15869   0.15998
     Eigenvalues ---    0.15999   0.16000   0.16075   0.21160   0.22416
     Eigenvalues ---    0.23261   0.23523   0.24597   0.24964   0.24998
     Eigenvalues ---    0.25024   0.34726   0.34914   0.34955   0.35098
     Eigenvalues ---    0.35252   0.38527   0.40100   0.40292   0.40611
     Eigenvalues ---    0.41074   0.42824   0.43448   0.44736   0.45365
     Eigenvalues ---    0.45640   0.46167   0.46785   0.50402   1.27457
     Eigenvalues ---    1.34495
 RFO step:  Lambda=-4.26579421D-03 EMin= 1.60221337D-02
 Quartic linear search produced a step of  0.32681.
 Iteration  1 RMS(Cart)=  0.03642158 RMS(Int)=  0.00104215
 Iteration  2 RMS(Cart)=  0.00157175 RMS(Int)=  0.00033603
 Iteration  3 RMS(Cart)=  0.00000073 RMS(Int)=  0.00033603
 Variable       Old X    -DE/DX   Delta X   Delta X   Delta X     New X
                                 (Linear)    (Quad)   (Total)
    R1        2.26061   0.01092   0.02198  -0.01062   0.01135   2.27197
    R2        2.74484   0.00163   0.00971  -0.00480   0.00491   2.74975
    R3        2.66966  -0.00022   0.00566  -0.00829  -0.00301   2.66665
    R4        2.72543   0.00489   0.01311   0.00106   0.01362   2.73905
    R5        2.68270   0.00146   0.01748  -0.01526   0.00237   2.68506
    R6        2.08196   0.00090   0.00774  -0.00476   0.00297   2.08494
    R7        2.67379   0.01138   0.01526   0.01623   0.03201   2.70580
    R8        2.08123   0.00232   0.00907  -0.00092   0.00815   2.08938
    R9        2.73558   0.01938   0.03142   0.02431   0.05610   2.79168
   R10        2.77025   0.00329   0.02995  -0.01915   0.01078   2.78103
   R11        2.71561   0.00593   0.02319  -0.00673   0.01660   2.73221
   R12        2.70282   0.00082   0.00831  -0.00596   0.00231   2.70512
   R13        2.66528  -0.00379   0.00527  -0.01667  -0.01154   2.65373
   R14        2.07692   0.00068   0.00506  -0.00276   0.00230   2.07922
   R15        2.70402   0.00609   0.02265  -0.00665   0.01590   2.71992
   R16        2.75198   0.00443   0.01328   0.00057   0.01384   2.76583
   R17        2.63837  -0.00535  -0.00023  -0.01514  -0.01532   2.62306
   R18        2.07172   0.00088   0.00531  -0.00229   0.00302   2.07474
   R19        2.07318   0.00180   0.00496   0.00152   0.00648   2.07966
   R20        2.25957   0.00969   0.02188  -0.01182   0.01006   2.26962
    A1        2.08230   0.00330   0.00807   0.01118   0.01981   2.10211
    A2        2.11998  -0.00036   0.00056   0.00019   0.00131   2.12129
    A3        2.08080  -0.00293  -0.00865  -0.01124  -0.02103   2.05977
    A4        2.11064   0.00173   0.00386  -0.00212   0.00132   2.11196
    A5        2.06229  -0.00266  -0.01326  -0.00057  -0.01367   2.04862
    A6        2.10989   0.00092   0.00927   0.00272   0.01213   2.12202
    A7        2.16514   0.01250   0.02522   0.04242   0.06817   2.23331
    A8        2.03973  -0.00960  -0.02165  -0.03784  -0.05982   1.97991
    A9        2.07809  -0.00290  -0.00364  -0.00425  -0.00824   2.06986
   A10        1.99682  -0.02148  -0.03881  -0.06653  -0.10387   1.89295
   A11        2.15867   0.01095   0.01975   0.03931   0.05903   2.21770
   A12        2.07746  -0.00330  -0.00076  -0.01903  -0.01999   2.05747
   A13        2.04703  -0.00766  -0.01899  -0.02038  -0.03928   2.00775
   A14        2.05221  -0.00080  -0.00173  -0.00250  -0.00513   2.04709
   A15        2.14296  -0.00346  -0.00984  -0.00815  -0.01758   2.12539
   A16        2.08783   0.00425   0.01152   0.01059   0.02251   2.11034
   A17        2.10871  -0.00017  -0.00325   0.00255  -0.00103   2.10768
   A18        2.10029  -0.00119   0.00052  -0.01036  -0.00978   2.09051
   A19        2.07415   0.00136   0.00273   0.00771   0.01051   2.08465
   A20        2.09410  -0.00053   0.00094  -0.00481  -0.00418   2.08991
   A21        2.09296   0.00095  -0.00144   0.00703   0.00574   2.09870
   A22        2.09612  -0.00042   0.00051  -0.00223  -0.00157   2.09456
   A23        2.09303  -0.00093   0.00014  -0.00676  -0.00673   2.08630
   A24        2.09346  -0.00185  -0.00417  -0.01066  -0.01478   2.07867
   A25        2.09669   0.00279   0.00403   0.01744   0.02152   2.11821
   A26        2.13484   0.00506   0.00963   0.01944   0.02920   2.16404
   A27        2.06999  -0.00484  -0.01006  -0.02240  -0.03253   2.03746
   A28        2.07834  -0.00022   0.00043   0.00295   0.00331   2.08166
   A29        3.16910  -0.00060   0.00944  -0.06053  -0.05110   3.11801
   A30        3.15065  -0.00014   0.00148  -0.00580  -0.00432   3.14633
   A31        3.15093  -0.00039   0.00122  -0.02813  -0.02691   3.12402
   A32        3.13681   0.00023   0.00215   0.00249   0.00464   3.14145
    D1       -3.13205   0.00050   0.00579   0.02515   0.03059  -3.10146
    D2       -0.01915   0.00032  -0.00283   0.02597   0.02324   0.00410
    D3        0.02494   0.00050   0.00699   0.01533   0.02225   0.04719
    D4        3.13784   0.00031  -0.00163   0.01615   0.01491  -3.13044
    D5       -3.10033  -0.00051  -0.00143  -0.01810  -0.01975  -3.12008
    D6        0.02068  -0.00071  -0.00705  -0.02119  -0.02825  -0.00756
    D7        0.02553  -0.00047  -0.00260  -0.00797  -0.01116   0.01438
    D8       -3.13664  -0.00067  -0.00823  -0.01105  -0.01965   3.12690
    D9       -0.03992  -0.00029  -0.00282  -0.01214  -0.01469  -0.05461
   D10        3.07860  -0.00029  -0.01268   0.00453  -0.00792   3.07068
   D11        3.13115  -0.00004   0.00607  -0.01293  -0.00660   3.12455
   D12       -0.03351  -0.00004  -0.00379   0.00374   0.00017  -0.03334
   D13        0.00068  -0.00014  -0.00672   0.00042  -0.00598  -0.00530
   D14       -3.11737  -0.00006   0.00328  -0.01620  -0.01249  -3.12986
   D15        0.05345   0.00060   0.01196   0.00906   0.02103   0.07449
   D16       -3.09512   0.00006   0.00977  -0.00691   0.00218  -3.09294
   D17       -0.06740  -0.00059  -0.00783  -0.00624  -0.01483  -0.08223
   D18        3.09410  -0.00031  -0.00235  -0.00304  -0.00593   3.08817
   D19        3.08106  -0.00007  -0.00568   0.00946   0.00350   3.08456
   D20       -0.04062   0.00021  -0.00020   0.01267   0.01240  -0.02822
   D21       -3.10610   0.00030   0.00283   0.00676   0.00925  -3.09686
   D22        0.02936   0.00020   0.00177   0.00558   0.00707   0.03643
   D23        0.02895  -0.00013   0.00079  -0.00795  -0.00697   0.02199
   D24       -3.11877  -0.00023  -0.00027  -0.00913  -0.00914  -3.12791
   D25       -3.10110   0.00030   0.00556   0.00033   0.00583  -3.09527
   D26        0.03063  -0.00020  -0.00103  -0.01133  -0.01227   0.01836
   D27        0.01950   0.00004  -0.00019  -0.00296  -0.00330   0.01620
   D28       -3.13195  -0.00046  -0.00679  -0.01463  -0.02140   3.12983
   D29        0.01506  -0.00016   0.00041  -0.01111  -0.01074   0.00432
   D30       -3.12814  -0.00036  -0.00258  -0.01277  -0.01538   3.13966
   D31       -3.11682   0.00034   0.00689   0.00048   0.00742  -3.10940
   D32        0.02316   0.00014   0.00390  -0.00118   0.00278   0.02594
   D33       -0.02753   0.00028   0.00027   0.01610   0.01639  -0.01115
   D34        3.11862   0.00020   0.00022   0.01245   0.01270   3.13132
   D35        3.11567   0.00048   0.00325   0.01775   0.02101   3.13668
   D36       -0.02136   0.00039   0.00320   0.01411   0.01733  -0.00403
   D37        0.00476  -0.00023  -0.00120  -0.00643  -0.00767  -0.00291
   D38       -3.13068  -0.00011  -0.00012  -0.00516  -0.00532  -3.13600
   D39       -3.14140  -0.00015  -0.00117  -0.00285  -0.00399   3.13779
   D40        0.00635  -0.00004  -0.00009  -0.00158  -0.00165   0.00470
         Item               Value     Threshold  Converged?
 Maximum Force            0.021475     0.000450     NO 
 RMS     Force            0.004596     0.000300     NO 
 Maximum Displacement     0.197837     0.001800     NO 
 RMS     Displacement     0.036392     0.001200     NO 
 Predicted change in Energy=-3.684044D-03
 GradGradGradGradGradGradGradGradGradGradGradGradGradGradGradGradGradGrad

                          Input orientation:                          
 ---------------------------------------------------------------------
 Center     Atomic      Atomic             Coordinates (Angstroms)
 Number     Number       Type             X           Y           Z
 ---------------------------------------------------------------------
      1          7           0        1.112217   -1.144765   -2.167316
      2          6           0        2.306179   -1.218192   -2.046802
      3          6           0        3.746656   -1.302120   -1.858900
      4          6           0        4.525165   -2.154130   -2.670872
      5          6           0        5.925395   -2.282013   -2.466209
      6          6           0        6.745384   -1.581695   -1.524208
      7          6           0        5.889073   -0.652966   -0.758314
      8          6           0        4.426603   -0.515919   -0.848729
      9          6           0        3.718314    0.387247    0.006712
     10          6           0        4.405158    1.179514    0.940846
     11          6           0        5.838310    1.088360    1.037862
     12          6           0        6.525204    0.206898    0.214506
     13          7           0        3.071383    2.858528    2.522695
     14          6           0        3.669885    2.100977    1.808279
     15          1           0        3.998272   -2.739564   -3.443479
     16          1           0        6.399184   -3.033866   -3.124015
     17          1           0        2.626016    0.483054   -0.084441
     18          1           0        6.365472    1.719711    1.765109
     19          1           0        7.620450    0.136892    0.296067
 ---------------------------------------------------------------------
                    Distance matrix (angstroms):
                    1          2          3          4          5
     1  N    0.000000
     2  C    1.202273   0.000000
     3  C    2.657094   1.455103   0.000000
     4  C    3.594523   2.487838   1.411132   0.000000
     5  C    4.954730   3.795568   2.464937   1.420875   0.000000
     6  C    5.686569   4.484616   3.030273   2.563571   1.431849
     7  C    5.004548   3.849261   2.494522   2.787761   2.360511
     8  C    3.622053   2.534712   1.449443   2.452275   2.825191
     9  C    3.723601   2.964538   2.516997   3.778765   4.255760
    10  C    5.089833   4.368152   3.798778   4.916512   5.089333
    11  C    6.131554   5.226020   4.298911   5.098313   4.862664
    12  C    6.066341   4.994453   3.781068   4.230841   3.706842
    13  N    6.469998   6.171344   6.079914   7.362971   7.711011
    14  C    5.734270   5.266709   5.003515   6.237004   6.524505
    15  H    3.535716   2.669917   2.154170   1.103301   2.208668
    16  H    5.695261   4.605405   3.411065   2.119251   1.105654
    17  H    3.046268   2.616753   2.755247   4.153447   4.919787
    18  H    7.160019   6.296015   5.396583   6.170194   5.840506
    19  H    7.075874   5.963787   4.660570   4.861306   4.044067
                    6          7          8          9         10
     6  C    0.000000
     7  C    1.477294   0.000000
     8  C    2.639867   1.471658   0.000000
     9  C    3.922194   2.525768   1.431490   0.000000
    10  C    4.379204   2.906396   2.465265   1.404296   0.000000
    11  C    3.810011   2.502208   2.850588   2.459514   1.439321
    12  C    2.504131   1.445824   2.461109   2.820343   2.442979
    13  N    7.042108   5.570906   4.958832   3.585514   2.664636
    14  C    5.841767   4.369943   3.805320   2.486937   1.463612
    15  H    3.545545   3.890904   3.443950   4.664670   5.894662
    16  H    2.188159   3.394914   3.925310   5.356542   6.184805
    17  H    4.827558   3.520254   2.196405   1.100274   2.168321
    18  H    4.675813   3.496315   3.948342   3.445992   2.194095
    19  H    2.651920   2.175606   3.455051   3.920850   3.441062
                   11         12         13         14         15
    11  C    0.000000
    12  C    1.388061   0.000000
    13  N    3.604734   4.928260   0.000000
    14  C    2.514160   3.778953   1.201032   0.000000
    15  H    6.174234   5.333655   8.233650   7.149800   0.000000
    16  H    5.884603   4.654477   8.813620   7.625170   2.439887
    17  H    3.456123   3.920369   3.555050   2.699949   4.852988
    18  H    1.097904   2.172208   3.566772   2.722759   7.253838
    19  H    2.152109   1.100508   5.749711   4.663837   5.947973
                   16         17         18         19
    16  H    0.000000
    17  H    5.987031   0.000000
    18  H    6.819177   4.351286   0.000000
    19  H    4.821012   5.020855   2.497673   0.000000
 Stoichiometry    C12H5N2(1-)
 Framework group  C1[X(C12H5N2)]
 Deg. of freedom    51
 Full point group                 C1      NOp   1
 Largest Abelian subgroup         C1      NOp   1
 Largest concise Abelian subgroup C1      NOp   1
                         Standard orientation:                         
 ---------------------------------------------------------------------
 Center     Atomic      Atomic             Coordinates (Angstroms)
 Number     Number       Type             X           Y           Z
 ---------------------------------------------------------------------
      1          7           0        1.611422    3.436589    0.008376
      2          6           0        1.642386    2.234769    0.019777
      3          6           0        1.645706    0.779716    0.008156
      4          6           0        2.863514    0.067287    0.034286
      5          6           0        2.882521   -1.352201   -0.025522
      6          6           0        1.765501   -2.247550   -0.053962
      7          6           0        0.524080   -1.448395   -0.002741
      8          6           0        0.412344    0.018899   -0.021206
      9          6           0       -0.868084    0.658875   -0.031003
     10          6           0       -2.050041   -0.098937   -0.003668
     11          6           0       -1.976238   -1.535699    0.040061
     12          6           0       -0.735194   -2.157408    0.041287
     13          7           0       -4.425241    1.108745   -0.018257
     14          6           0       -3.353255    0.567193   -0.011600
     15          1           0        3.795547    0.656768    0.067429
     16          1           0        3.902417   -1.776995   -0.068307
     17          1           0       -0.929904    1.757408   -0.033567
     18          1           0       -2.906831   -2.117449    0.070982
     19          1           0       -0.683939   -3.256361    0.069436
 ---------------------------------------------------------------------
 Rotational constants (GHZ):      1.0686889      0.5591220      0.3671524
 Standard basis: STO-3G (5D, 7F)
 There are    75 symmetry adapted cartesian basis functions of A   symmetry.
 There are    75 symmetry adapted basis functions of A   symmetry.
    75 basis functions,   225 primitive gaussians,    75 cartesian basis functions
    46 alpha electrons       46 beta electrons
       nuclear repulsion energy       694.9816021335 Hartrees.
 NAtoms=   19 NActive=   19 NUniq=   19 SFac= 1.00D+00 NAtFMM=   60 NAOKFM=F Big=F
 Integral buffers will be    131072 words long.
 Raffenetti 2 integral format.
 Two-electron integral symmetry is turned on.
 One-electron integrals computed using PRISM.
 NBasis=    75 RedAO= T EigKep=  1.76D-01  NBF=    75
 NBsUse=    75 1.00D-06 EigRej= -1.00D+00 NBFU=    75
 Initial guess from the checkpoint file:  "/tmp/bnp.472681.sequoia/Gau-13675.chk"
 B after Tr=     0.000000    0.000000    0.000000
         Rot=    0.999951    0.000108    0.000052   -0.009929 Ang=   1.14 deg.
 ExpMin= 1.69D-01 ExpMax= 9.91D+01 ExpMxC= 9.91D+01 IAcc=1 IRadAn=         1 AccDes= 0.00D+00
 Harris functional with IExCor=  402 and IRadAn=       1 diagonalized for initial guess.
 HarFok:  IExCor=  402 AccDes= 0.00D+00 IRadAn=         1 IDoV= 1 UseB2=F ITyADJ=14
 ICtDFT=  3500011 ScaDFX=  1.000000  1.000000  1.000000  1.000000
 FoFCou: FMM=F IPFlag=           0 FMFlag=      100000 FMFlg1=           0
         NFxFlg=           0 DoJE=T BraDBF=F KetDBF=T FulRan=T
         wScrn=  0.000000 ICntrl=     500 IOpCl=  0 I1Cent=   200000004 NGrid=           0
         NMat0=    1 NMatS0=      1 NMatT0=    0 NMatD0=    1 NMtDS0=    0 NMtDT0=    0
 Petite list used in FoFCou.
 Keep R1 ints in memory in canonical form, NReq=4993994.
 Requested convergence on RMS density matrix=1.00D-08 within 128 cycles.
 Requested convergence on MAX density matrix=1.00D-06.
 Requested convergence on             energy=1.00D-06.
 No special actions if energy rises.
 Integral accuracy reduced to 1.0D-05 until final iterations.
 Initial convergence to 1.0D-05 achieved.  Increase integral accuracy.
 SCF Done:  E(RB3LYP) =  -562.515498130     A.U. after   17 cycles
            NFock= 17  Conv=0.39D-08     -V/T= 2.0140
 Calling FoFJK, ICntrl=      2127 FMM=F ISym2X=0 I1Cent= 0 IOpClX= 0 NMat=1 NMatS=1 NMatT=0.
 ***** Axes restored to original set *****
 -------------------------------------------------------------------
 Center     Atomic                   Forces (Hartrees/Bohr)
 Number     Number              X              Y              Z
 -------------------------------------------------------------------
      1        7           0.002863493   -0.000734879   -0.001465660
      2        6          -0.001687162    0.001631324    0.003772020
      3        6          -0.002462038   -0.000986377   -0.003195392
      4        6           0.000880247   -0.000348358    0.001996740
      5        6          -0.003578419   -0.004317315   -0.004862256
      6        6           0.003904257   -0.001087752   -0.001762574
      7        6          -0.009344023    0.004924748    0.005021138
      8        6           0.004086067   -0.000186451   -0.001091649
      9        6           0.000629036    0.001828007    0.000674619
     10        6          -0.001629754    0.000201043    0.000332687
     11        6           0.001341848    0.000451542    0.000316384
     12        6           0.001537707   -0.000019205    0.001267850
     13        7           0.001663701   -0.001889353   -0.001754956
     14        6          -0.001068115    0.001528935    0.001329937
     15        1           0.001886970   -0.000131101    0.000232052
     16        1           0.000974214    0.000532204   -0.000247940
     17        1           0.000579040   -0.000949805   -0.000219155
     18        1          -0.000301781   -0.000345446   -0.000307894
     19        1          -0.000275287   -0.000101762   -0.000035950
 -------------------------------------------------------------------
 Cartesian Forces:  Max     0.009344023 RMS     0.002356081

 GradGradGradGradGradGradGradGradGradGradGradGradGradGradGradGradGradGrad
 Berny optimization.
 Using GEDIIS/GDIIS optimizer.
 FormGI is forming the generalized inverse of G from B-inverse, IUseBI=4.
 Internal  Forces:  Max     0.006250324 RMS     0.001327897
 Search for a local minimum.
 Step number   3 out of a maximum of  102
 All quantities printed in internal units (Hartrees-Bohrs-Radians)
 Mixed Optimization -- RFO/linear search
 Update second derivatives using D2CorX and points    1    2    3
 DE= -3.70D-03 DEPred=-3.68D-03 R= 1.00D+00
 TightC=F SS=  1.41D+00  RLast= 2.16D-01 DXNew= 8.4853D-01 6.4805D-01
 Trust test= 1.00D+00 RLast= 2.16D-01 DXMaxT set to 6.48D-01
 ITU=  1  1  0
 Use linear search instead of GDIIS.
     Eigenvalues ---    0.01602   0.01662   0.01878   0.01883   0.01928
     Eigenvalues ---    0.01959   0.01990   0.02059   0.02097   0.02111
     Eigenvalues ---    0.02116   0.02130   0.02136   0.02151   0.02191
     Eigenvalues ---    0.02223   0.04863   0.04865   0.15588   0.15997
     Eigenvalues ---    0.15999   0.16004   0.16264   0.20987   0.22523
     Eigenvalues ---    0.22927   0.23547   0.24683   0.24967   0.25021
     Eigenvalues ---    0.25358   0.34731   0.34894   0.34974   0.35112
     Eigenvalues ---    0.35198   0.38342   0.39215   0.40140   0.40555
     Eigenvalues ---    0.41055   0.41640   0.43326   0.44405   0.45362
     Eigenvalues ---    0.45789   0.46214   0.46717   0.50594   1.27455
     Eigenvalues ---    1.36797
 RFO step:  Lambda=-1.31068823D-03 EMin= 1.60239365D-02
 Quartic linear search produced a step of -0.06519.
 Iteration  1 RMS(Cart)=  0.04389705 RMS(Int)=  0.00460903
 Iteration  2 RMS(Cart)=  0.00485325 RMS(Int)=  0.00003809
 Iteration  3 RMS(Cart)=  0.00003947 RMS(Int)=  0.00003191
 Iteration  4 RMS(Cart)=  0.00000000 RMS(Int)=  0.00003191
 Variable       Old X    -DE/DX   Delta X   Delta X   Delta X     New X
                                 (Linear)    (Quad)   (Total)
    R1        2.27197  -0.00274  -0.00074   0.00156   0.00082   2.27279
    R2        2.74975  -0.00141  -0.00032  -0.00169  -0.00201   2.74774
    R3        2.66665   0.00183   0.00020   0.00334   0.00357   2.67022
    R4        2.73905   0.00210  -0.00089   0.00776   0.00689   2.74594
    R5        2.68506  -0.00208  -0.00015  -0.00244  -0.00258   2.68249
    R6        2.08494  -0.00099  -0.00019  -0.00156  -0.00175   2.08318
    R7        2.70580   0.00327  -0.00209   0.01385   0.01175   2.71755
    R8        2.08938   0.00020  -0.00053   0.00271   0.00218   2.09156
    R9        2.79168   0.00625  -0.00366   0.02565   0.02196   2.81364
   R10        2.78103  -0.00459  -0.00070  -0.00627  -0.00700   2.77403
   R11        2.73221   0.00107  -0.00108   0.00688   0.00579   2.73800
   R12        2.70512   0.00065  -0.00015   0.00217   0.00202   2.70714
   R13        2.65373   0.00014   0.00075  -0.00155  -0.00079   2.65295
   R14        2.07922  -0.00064  -0.00015  -0.00094  -0.00109   2.07813
   R15        2.71992   0.00073  -0.00104   0.00625   0.00522   2.72514
   R16        2.76583  -0.00078  -0.00090   0.00173   0.00083   2.76666
   R17        2.62306  -0.00051   0.00100  -0.00376  -0.00276   2.62030
   R18        2.07474  -0.00055  -0.00020  -0.00052  -0.00072   2.07402
   R19        2.07966  -0.00027  -0.00042   0.00086   0.00043   2.08009
   R20        2.26962  -0.00307  -0.00066   0.00107   0.00042   2.27004
    A1        2.10211   0.00090  -0.00129   0.00820   0.00690   2.10901
    A2        2.12129  -0.00146  -0.00009  -0.00463  -0.00473   2.11656
    A3        2.05977   0.00056   0.00137  -0.00351  -0.00214   2.05762
    A4        2.11196   0.00102  -0.00009   0.00480   0.00466   2.11662
    A5        2.04862   0.00120   0.00089   0.00445   0.00528   2.05390
    A6        2.12202  -0.00220  -0.00079  -0.00863  -0.00948   2.11254
    A7        2.23331  -0.00221  -0.00444   0.00660   0.00210   2.23541
    A8        1.97991   0.00201   0.00390  -0.00361   0.00029   1.98020
    A9        2.06986   0.00021   0.00054  -0.00283  -0.00229   2.06757
   A10        1.89295   0.00145   0.00677  -0.01506  -0.00843   1.88452
   A11        2.21770  -0.00129  -0.00385   0.00869   0.00476   2.22246
   A12        2.05747  -0.00072   0.00130  -0.00653  -0.00517   2.05230
   A13        2.00775   0.00202   0.00256  -0.00203   0.00054   2.00829
   A14        2.04709   0.00054   0.00033   0.00078   0.00106   2.04814
   A15        2.12539   0.00065   0.00115  -0.00079   0.00037   2.12576
   A16        2.11034  -0.00118  -0.00147   0.00030  -0.00118   2.10915
   A17        2.10768   0.00075   0.00007   0.00239   0.00244   2.11013
   A18        2.09051  -0.00121   0.00064  -0.00800  -0.00738   2.08313
   A19        2.08465   0.00048  -0.00068   0.00587   0.00517   2.08982
   A20        2.08991  -0.00019   0.00027  -0.00095  -0.00066   2.08925
   A21        2.09870   0.00060  -0.00037   0.00299   0.00261   2.10131
   A22        2.09456  -0.00041   0.00010  -0.00204  -0.00194   2.09261
   A23        2.08630  -0.00077   0.00044  -0.00353  -0.00309   2.08321
   A24        2.07867   0.00035   0.00096  -0.00224  -0.00127   2.07740
   A25        2.11821   0.00042  -0.00140   0.00577   0.00436   2.12257
   A26        2.16404  -0.00063  -0.00190   0.00406   0.00214   2.16618
   A27        2.03746   0.00021   0.00212  -0.00642  -0.00430   2.03316
   A28        2.08166   0.00041  -0.00022   0.00239   0.00218   2.08384
   A29        3.11801   0.00378   0.00333   0.19499   0.19832   3.31633
   A30        3.14633   0.00037   0.00028   0.00616   0.00645   3.15277
   A31        3.12402   0.00173   0.00175   0.08789   0.08965   3.21367
   A32        3.14145   0.00000  -0.00030   0.00112   0.00082   3.14227
    D1       -3.10146  -0.00019  -0.00199  -0.00424  -0.00622  -3.10768
    D2        0.00410   0.00027  -0.00152   0.01465   0.01321   0.01731
    D3        0.04719  -0.00038  -0.00145  -0.01315  -0.01463   0.03256
    D4       -3.13044   0.00007  -0.00097   0.00574   0.00481  -3.12564
    D5       -3.12008  -0.00020   0.00129  -0.01656  -0.01522  -3.13530
    D6       -0.00756   0.00007   0.00184  -0.00508  -0.00320  -0.01077
    D7        0.01438   0.00000   0.00073  -0.00748  -0.00673   0.00765
    D8        3.12690   0.00028   0.00128   0.00399   0.00529   3.13218
    D9       -0.05461   0.00054   0.00096   0.01861   0.01953  -0.03508
   D10        3.07068   0.00081   0.00052   0.02982   0.03029   3.10097
   D11        3.12455  -0.00001   0.00043  -0.00136  -0.00087   3.12367
   D12       -0.03334   0.00026  -0.00001   0.00984   0.00989  -0.02346
   D13       -0.00530   0.00003   0.00039  -0.00074  -0.00037  -0.00567
   D14       -3.12986  -0.00027   0.00081  -0.01245  -0.01162  -3.14148
   D15        0.07449  -0.00065  -0.00137  -0.02237  -0.02375   0.05073
   D16       -3.09294  -0.00035  -0.00014  -0.01619  -0.01630  -3.10924
   D17       -0.08223   0.00075   0.00097   0.02723   0.02824  -0.05399
   D18        3.08817   0.00045   0.00039   0.01588   0.01632   3.10449
   D19        3.08456   0.00049  -0.00023   0.02127   0.02102   3.10558
   D20       -0.02822   0.00019  -0.00081   0.00992   0.00910  -0.01912
   D21       -3.09686  -0.00038  -0.00060  -0.01372  -0.01429  -3.11115
[...]
 ! D17   D(6,7,8,3)              0.0059         -DE/DX =    0.0                 !
 ! D18   D(6,7,8,9)           -179.998          -DE/DX =    0.0                 !
 ! D19   D(12,7,8,3)          -180.0044         -DE/DX =    0.0                 !
 ! D20   D(12,7,8,9)            -0.0083         -DE/DX =    0.0                 !
 ! D21   D(6,7,12,11)          179.9973         -DE/DX =    0.0                 !
 ! D22   D(6,7,12,19)           -0.0042         -DE/DX =    0.0                 !
 ! D23   D(8,7,12,11)            0.0065         -DE/DX =    0.0                 !
 ! D24   D(8,7,12,19)          180.0051         -DE/DX =    0.0                 !
 ! D25   D(3,8,9,10)           180.0009         -DE/DX =    0.0                 !
 ! D26   D(3,8,9,17)            -0.0001         -DE/DX =    0.0                 !
 ! D27   D(7,8,9,10)             0.005          -DE/DX =    0.0                 !
 ! D28   D(7,8,9,17)           180.004          -DE/DX =    0.0                 !
 ! D29   D(8,9,10,11)            0.0009         -DE/DX =    0.0                 !
 ! D30   D(8,9,10,14)         -179.9992         -DE/DX =    0.0                 !
 ! D31   D(17,9,10,11)         180.0018         -DE/DX =    0.0                 !
 ! D32   D(17,9,10,14)           0.0018         -DE/DX =    0.0                 !
 ! D33   D(9,10,11,12)          -0.0029         -DE/DX =    0.0                 !
 ! D34   D(9,10,11,18)        -180.0023         -DE/DX =    0.0                 !
 ! D35   D(14,10,11,12)       -180.0028         -DE/DX =    0.0                 !
 ! D36   D(14,10,11,18)         -0.0022         -DE/DX =    0.0                 !
 ! D37   D(10,11,12,7)          -0.001          -DE/DX =    0.0                 !
 ! D38   D(10,11,12,19)        180.0004         -DE/DX =    0.0                 !
 ! D39   D(18,11,12,7)        -180.0016         -DE/DX =    0.0                 !
 ! D40   D(18,11,12,19)         -0.0001         -DE/DX =    0.0                 !
 --------------------------------------------------------------------------------
 GradGradGradGradGradGradGradGradGradGradGradGradGradGradGradGradGradGrad

                          Input orientation:                          
 ---------------------------------------------------------------------
 Center     Atomic      Atomic             Coordinates (Angstroms)
 Number     Number       Type             X           Y           Z
 ---------------------------------------------------------------------
      1          7           0        1.110776   -1.184312   -2.180721
      2          6           0        2.300695   -1.233272   -2.024260
      3          6           0        3.740626   -1.308605   -1.852258
      4          6           0        4.517723   -2.180165   -2.647098
      5          6           0        5.923877   -2.265165   -2.491061
      6          6           0        6.752967   -1.537630   -1.568052
      7          6           0        5.879105   -0.638641   -0.760923
      8          6           0        4.427783   -0.496872   -0.864364
      9          6           0        3.722720    0.415985   -0.012828
     10          6           0        4.406388    1.191535    0.935770
     11          6           0        5.837117    1.072855    1.060076
     12          6           0        6.520381    0.189518    0.236315
     13          7           0        3.088893    2.884217    2.513032
     14          6           0        3.676557    2.119727    1.799368
     15          1           0        3.994763   -2.796161   -3.396709
     16          1           0        6.409646   -2.985323   -3.174578
     17          1           0        2.631020    0.507243   -0.106974
     18          1           0        6.360673    1.684510    1.805408
     19          1           0        7.612609    0.096508    0.328649
 ---------------------------------------------------------------------
                    Distance matrix (angstroms):
                    1          2          3          4          5
     1  N    0.000000
     2  C    1.201159   0.000000
     3  C    2.653195   1.452123   0.000000
     4  C    3.580016   2.489929   1.412540   0.000000
     5  C    4.942721   3.796071   2.467724   1.417336   0.000000
     6  C    5.686345   4.485921   3.034374   2.563885   1.438278
     7  C    5.005051   3.841175   2.492580   2.790576   2.375071
     8  C    3.634268   2.532222   1.451561   2.453509   2.830424
     9  C    3.752728   2.964467   2.521515   3.783042   4.263250
    10  C    5.120373   4.367541   3.803556   4.921148   5.098502
    11  C    6.159209   5.228540   4.306775   5.105494   4.874471
    12  C    6.082211   4.994025   3.785967   4.235576   3.717508
    13  N    6.518987   6.177539   6.087714   7.369970   7.719728
    14  C    5.774168   5.268371   5.009185   6.242410   6.533414
    15  H    3.520520   2.682556   2.159337   1.102205   2.196278
    16  H    5.684137   4.612634   3.418126   2.122708   1.105349
    17  H    3.077812   2.610459   2.752189   4.151390   4.920673
    18  H    7.188935   6.297876   5.403879   6.177135   5.852382
    19  H    7.085991   5.959944   4.660789   4.859695   4.047231
                    6          7          8          9         10
     6  C    0.000000
     7  C    1.491065   0.000000
     8  C    2.642884   1.461894   0.000000
     9  C    3.926542   2.514335   1.433714   0.000000
    10  C    4.384507   2.897793   2.468129   1.403110   0.000000
    11  C    3.815818   2.499403   2.855474   2.460340   1.441014
    12  C    2.508561   1.446225   2.462030   2.817848   2.441771
    13  N    7.045099   5.560089   4.962982   3.588017   2.662465
    14  C    5.846373   4.360607   3.808727   2.487754   1.462872
    15  H    3.540562   3.892686   3.447754   4.673601   5.902672
    16  H    2.189660   3.407950   3.931572   5.365178   6.193073
    17  H    4.827702   3.505817   2.193227   1.099545   2.169677
    18  H    4.681487   3.494996   3.952490   3.445857   2.195114
    19  H    2.647049   2.175465   3.452318   3.917896   3.442025
                   11         12         13         14         15
    11  C    0.000000
    12  C    1.387702   0.000000
    13  N    3.597895   4.921377   0.000000
    14  C    2.512073   3.775735   1.199629   0.000000
    15  H    6.182757   5.337779   8.246959   7.160058   0.000000
    16  H    5.893122   4.661123   8.822007   7.633574   2.432444
    17  H    3.458464   3.917387   3.567083   2.706915   4.857430
    18  H    1.097158   2.173146   3.555920   2.719177   7.261954
    19  H    2.154208   1.100063   5.745159   4.663575   5.944295
                   16         17         18         19
    16  H    0.000000
    17  H    5.990512   0.000000
    18  H    6.827153   4.353558   0.000000
    19  H    4.818444   5.017439   2.503980   0.000000
 Stoichiometry    C12H5N2(1-)
 Framework group  C1[X(C12H5N2)]
 Deg. of freedom    51
 Full point group                 C1      NOp   1
 Largest Abelian subgroup         C1      NOp   1
 Largest concise Abelian subgroup C1      NOp   1
                         Standard orientation:                         
 ---------------------------------------------------------------------
 Center     Atomic      Atomic             Coordinates (Angstroms)
 Number     Number       Type             X           Y           Z
 ---------------------------------------------------------------------
      1          7           0        1.672579    3.425684   -0.000092
      2          6           0        1.651943    2.224703   -0.000055
      3          6           0        1.650589    0.772580    0.000091
      4          6           0        2.864208    0.049809    0.000132
      5          6           0        2.879389   -1.367446    0.000079
      6          6           0        1.751651   -2.260110   -0.000075
      7          6           0        0.505470   -1.441388   -0.000094
      8          6           0        0.410912    0.017444    0.000045
      9          6           0       -0.868598    0.664275    0.000048
     10          6           0       -2.055103   -0.084674    0.000022
     11          6           0       -1.992557   -1.524330    0.000011
     12          6           0       -0.754547   -2.151264   -0.000034
     13          7           0       -4.426918    1.124959   -0.000014
     14          6           0       -3.355123    0.586102    0.000008
     15          1           0        3.804832    0.624335   -0.000059
     16          1           0        3.893807   -1.806481   -0.000350
     17          1           0       -0.917314    1.762740    0.000088
     18          1           0       -2.927069   -2.099171    0.000029
     19          1           0       -0.703287   -3.250132   -0.000050
 ---------------------------------------------------------------------
 Rotational constants (GHZ):      1.0707368      0.5565935      0.3662226

 **********************************************************************

            Population analysis using the SCF density.

 **********************************************************************

 Orbital symmetries:
       Occupied  (A) (A) (A) (A) (A) (A) (A) (A) (A) (A) (A) (A)
                 (A) (A) (A) (A) (A) (A) (A) (A) (A) (A) (A) (A)
                 (A) (A) (A) (A) (A) (A) (A) (A) (A) (A) (A) (A)
                 (A) (A) (A) (A) (A) (A) (A) (A) (A) (A)
       Virtual   (A) (A) (A) (A) (A) (A) (A) (A) (A) (A) (A) (A)
                 (A) (A) (A) (A) (A) (A) (A) (A) (A) (A) (A) (A)
                 (A) (A) (A) (A) (A)
 The electronic state is 1-A.
 Alpha  occ. eigenvalues --  -13.99848 -13.96344  -9.91033  -9.90258  -9.87997
 Alpha  occ. eigenvalues --   -9.87277  -9.87154  -9.86932  -9.86710  -9.86084
 Alpha  occ. eigenvalues --   -9.85209  -9.83164  -9.79429  -9.67161  -0.73248
 Alpha  occ. eigenvalues --   -0.70542  -0.67063  -0.62132  -0.57372  -0.54714
 Alpha  occ. eigenvalues --   -0.51433  -0.44541  -0.42238  -0.39763  -0.35535
 Alpha  occ. eigenvalues --   -0.32760  -0.30619  -0.25714  -0.24945  -0.23128
 Alpha  occ. eigenvalues --   -0.21079  -0.20767  -0.19949  -0.17572  -0.17031
 Alpha  occ. eigenvalues --   -0.15793  -0.14099  -0.14025  -0.13044  -0.12089
 Alpha  occ. eigenvalues --   -0.09767  -0.09125  -0.06821  -0.03352   0.02009
 Alpha  occ. eigenvalues --    0.10856
 Alpha virt. eigenvalues --    0.17049   0.21329   0.24185   0.25230   0.27625
 Alpha virt. eigenvalues --    0.29195   0.35472   0.37019   0.42463   0.45769
 Alpha virt. eigenvalues --    0.46652   0.51952   0.53099   0.54333   0.57110
 Alpha virt. eigenvalues --    0.59364   0.61700   0.62212   0.68357   0.69917
 Alpha virt. eigenvalues --    0.70608   0.74228   0.78065   0.82052   0.84522
 Alpha virt. eigenvalues --    0.91036   0.93004   1.06002   1.09233
          Condensed to atoms (all electrons):
               1          2          3          4          5          6
     1  N    6.615881   0.656558  -0.011435  -0.000129  -0.000001   0.000000
     2  C    0.656558   4.941633   0.427899  -0.028983   0.000796  -0.000005
     3  C   -0.011435   0.427899   4.815681   0.494734  -0.029854  -0.005802
     4  C   -0.000129  -0.028983   0.494734   4.852998   0.480038  -0.017485
     5  C   -0.000001   0.000796  -0.029854   0.480038   4.941059   0.436691
     6  C    0.000000  -0.000005  -0.005802  -0.017485   0.436691   5.491110
     7  C   -0.000001   0.000684  -0.029750  -0.012799  -0.029464   0.385526
     8  C   -0.000004  -0.027016   0.456182  -0.029135  -0.011228  -0.016872
     9  C   -0.000110  -0.004374  -0.029088   0.000722   0.000047   0.000564
    10  C    0.000000   0.000016   0.000759  -0.000007   0.000001   0.000017
    11  C    0.000000   0.000000   0.000033   0.000000  -0.000015   0.000747
    12  C    0.000000  -0.000006   0.000857   0.000012   0.001366  -0.034157
    13  N    0.000000   0.000000   0.000000   0.000000   0.000000   0.000000
    14  C    0.000000   0.000000  -0.000006   0.000000   0.000000   0.000000
    15  H    0.000067  -0.003587  -0.027835   0.380589  -0.023068   0.001060
    16  H    0.000000  -0.000020   0.001470  -0.036148   0.380490  -0.032078
    17  H   -0.000094   0.001659  -0.003647   0.000022  -0.000002  -0.000013
    18  H    0.000000   0.000000   0.000001   0.000000   0.000000  -0.000017
    19  H    0.000000   0.000000  -0.000016   0.000001   0.000031  -0.001468
               7          8          9         10         11         12
     1  N   -0.000001  -0.000004  -0.000110   0.000000   0.000000   0.000000
     2  C    0.000684  -0.027016  -0.004374   0.000016   0.000000  -0.000006
     3  C   -0.029750   0.456182  -0.029088   0.000759   0.000033   0.000857
     4  C   -0.012799  -0.029135   0.000722  -0.000007   0.000000   0.000012
     5  C   -0.029464  -0.011228   0.000047   0.000001  -0.000015   0.001366
     6  C    0.385526  -0.016872   0.000564   0.000017   0.000747  -0.034157
     7  C    4.904418   0.442011  -0.022638  -0.008357  -0.025039   0.460574
     8  C    0.442011   4.819283   0.472629  -0.027359  -0.008460  -0.034159
     9  C   -0.022638   0.472629   4.837278   0.508302  -0.029844  -0.009920
    10  C   -0.008357  -0.027359   0.508302   4.767528   0.462117  -0.029054
    11  C   -0.025039  -0.008460  -0.029844   0.462117   4.844900   0.523592
    12  C    0.460574  -0.034159  -0.009920  -0.029054   0.523592   4.839096
    13  N    0.000000  -0.000001  -0.000092  -0.010852  -0.000085  -0.000001
    14  C    0.000010   0.000853  -0.029036   0.418165  -0.028283   0.000852
    15  H    0.000090   0.001320  -0.000017   0.000000   0.000000   0.000001
    16  H    0.002235   0.000002   0.000001   0.000000   0.000000  -0.000016
    17  H    0.001102  -0.023809   0.384523  -0.025636   0.001272   0.000014
    18  H    0.001246   0.000016   0.001222  -0.025430   0.387612  -0.024256
    19  H   -0.025658   0.001425   0.000026   0.001426  -0.026926   0.383966
              13         14         15         16         17         18
     1  N    0.000000   0.000000   0.000067   0.000000  -0.000094   0.000000
     2  C    0.000000   0.000000  -0.003587  -0.000020   0.001659   0.000000
     3  C    0.000000  -0.000006  -0.027835   0.001470  -0.003647   0.000001
     4  C    0.000000   0.000000   0.380589  -0.036148   0.000022   0.000000
     5  C    0.000000   0.000000  -0.023068   0.380490  -0.000002   0.000000
     6  C    0.000000   0.000000   0.001060  -0.032078  -0.000013  -0.000017
     7  C    0.000000   0.000010   0.000090   0.002235   0.001102   0.001246
     8  C   -0.000001   0.000853   0.001320   0.000002  -0.023809   0.000016
     9  C   -0.000092  -0.029036  -0.000017   0.000001   0.384523   0.001222
    10  C   -0.010852   0.418165   0.000000   0.000000  -0.025636  -0.025430
    11  C   -0.000085  -0.028283   0.000000   0.000000   0.001272   0.387612
    12  C   -0.000001   0.000852   0.000001  -0.000016   0.000014  -0.024256
    13  N    6.586293   0.661374   0.000000   0.000000   0.000059   0.000058
    14  C    0.661374   4.933441   0.000000   0.000000  -0.003469  -0.003009
    15  H    0.000000   0.000000   0.627781  -0.003937  -0.000002   0.000000
    16  H    0.000000   0.000000  -0.003937   0.670445   0.000000   0.000000
    17  H    0.000059  -0.003469  -0.000002   0.000000   0.593900  -0.000034
    18  H    0.000058  -0.003009   0.000000   0.000000  -0.000034   0.608351
    19  H    0.000000  -0.000017   0.000000  -0.000003   0.000002  -0.003798
              19
     1  N    0.000000
     2  C    0.000000
     3  C   -0.000016
     4  C    0.000001
     5  C    0.000031
     6  C   -0.001468
     7  C   -0.025658
     8  C    0.001425
     9  C    0.000026
    10  C    0.001426
    11  C   -0.026926
    12  C    0.383966
    13  N    0.000000
    14  C   -0.000017
    15  H    0.000000
    16  H   -0.000003
    17  H    0.000002
    18  H   -0.003798
    19  H    0.603288
 Mulliken charges:
               1
     1  N   -0.260732
     2  C    0.034746
     3  C   -0.060181
     4  C   -0.084429
     5  C   -0.146886
     6  C   -0.207818
     7  C   -0.044191
     8  C   -0.015677
     9  C   -0.080194
    10  C   -0.031636
    11  C   -0.101621
    12  C   -0.078760
    13  N   -0.236753
    14  C    0.049124
    15  H    0.047538
    16  H    0.017559
    17  H    0.074153
    18  H    0.058037
    19  H    0.067721
 Sum of Mulliken charges =  -1.00000
 Mulliken charges with hydrogens summed into heavy atoms:
               1
     1  N   -0.260732
     2  C    0.034746
     3  C   -0.060181
     4  C   -0.036891
     5  C   -0.129327
     6  C   -0.207818
     7  C   -0.044191
     8  C   -0.015677
     9  C   -0.006042
    10  C   -0.031636
    11  C   -0.043584
    12  C   -0.011039
    13  N   -0.236753
    14  C    0.049124
 Electronic spatial extent (au):  <R**2>=           2788.7975
 Charge=             -1.0000 electrons
 Dipole moment (field-independent basis, Debye):
    X=             -1.3293    Y=             -0.2500    Z=              0.0002  Tot=              1.3526
 Quadrupole moment (field-independent basis, Debye-Ang):
   XX=           -110.0553   YY=           -106.4910   ZZ=            -74.1461
   XY=              9.6181   XZ=             -0.0003   YZ=             -0.0002
 Traceless Quadrupole moment (field-independent basis, Debye-Ang):
   XX=            -13.1578   YY=             -9.5935   ZZ=             22.7513
   XY=              9.6181   XZ=             -0.0003   YZ=             -0.0002
 Octapole moment (field-independent basis, Debye-Ang**2):
  XXX=             91.4811  YYY=            -23.0913  ZZZ=             -0.0004  XYY=            -53.7150
  XXY=            -23.9316  XXZ=             -0.0015  XZZ=             -2.9817  YZZ=              4.4787
  YYZ=              0.0046  XYZ=             -0.0001
 Hexadecapole moment (field-independent basis, Debye-Ang**3):
 XXXX=          -2907.7353 YYYY=          -1595.3298 ZZZZ=            -58.3484 XXXY=            216.0849
 XXXZ=             -0.0146 YYYX=            -19.5048 YYYZ=              0.0004 ZZZX=             -0.0006
 ZZZY=             -0.0011 XXYY=           -723.8063 XXZZ=           -394.0863 YYZZ=           -213.7218
 XXYZ=              0.0025 YYXZ=              0.0062 ZZXY=              0.4817
 N-N= 6.946368460870D+02 E-N=-2.711398542824D+03  KE= 5.547466409690D+02
 1\1\GINC-N055\FOpt\RB3LYP\STO-3G\C12H5N2(1-)\R2532\15-Jun-2021\0\\#N B
 3LYP/STO-3G OPT\\1Naph\\-1,1\N,1.1107763444,-1.1843122977,-2.180721336
 \C,2.3006949361,-1.2332722059,-2.0242602368\C,3.7406258711,-1.30860459
 28,-1.8522584537\C,4.5177231372,-2.1801652693,-2.6470980088\C,5.923876
 8202,-2.2651650413,-2.4910607685\C,6.752967275,-1.537630206,-1.5680523
 465\C,5.8791047564,-0.6386411342,-0.7609229227\C,4.4277831889,-0.49687
 24165,-0.8643640112\C,3.7227200043,0.4159850143,-0.0128275303\C,4.4063
 878202,1.1915351756,0.9357698987\C,5.8371165557,1.0728547278,1.0600755
 236\C,6.5203811433,0.1895176842,0.2363148292\N,3.0888931971,2.88421666
 45,2.513031819\C,3.6765573746,2.1197265895,1.7993678659\H,3.9947629139
 ,-2.79616133,-3.3967090517\H,6.4096462864,-2.9853230969,-3.1745784887\
 H,2.6310204831,0.5072430924,-0.1069740267\H,6.3606727241,1.6845104516,
 1.805408247\H,7.612609168,0.0965081908,0.3286489982\\Version=ES64L-G09
 RevD.01\State=1-A\HF=-562.5160372\RMSD=8.180e-09\RMSF=2.312e-05\Dipole
 =0.0715154,0.3541102,0.3907379\Quadrupole=-7.5035319,3.7370292,3.76650
 28,7.0555194,3.2524297,-12.8410818\PG=C01 [X(C12H5N2)]\\@


 GOD GAVE US TWO ENDS... ONE TO SIT ON...    
 AND THE OTHER TO THINK WITH...              
 YOUR SUCCESS DEPENDS UPON WHICH END YOU     
 USE THE MOST...                             
                                             
 IT'S A CASE OF HEADS YOU WIN TAILS YOU LOSE.
          SOURCE UNKNOWN(IT'S JUST AS WELL.) 
 Job cpu time:       0 days  0 hours  4 minutes 35.8 seconds.
 File lengths (MBytes):  RWF=      5 Int=      0 D2E=      0 Chk=      2 Scr=      1
 Normal termination of Gaussian 09 at Tue Jun 15 11:18:20 2021.
