 Entering Gaussian System, Link 0=/usr/local/apps//g09/g09
 Input=9.com
 Output=9.out
 Initial command:
 /usr/local/apps//g09/l1.exe "/tmp/bnp.472694.sequoia/Gau-2461.inp" -scrdir="/tmp/bnp.472694.sequoia/"
 Entering Link 1 = /usr/local/apps//g09/l1.exe PID=      2462.
  
 Copyright (c) 1988,1990,1992,1993,1995,1998,2003,2009,2013,
            Gaussian, Inc.  All Rights Reserved.
  
 This is part of the Gaussian(R) 09 program.  It is based on
 the Gaussian(R) 03 system (copyright 2003, Gaussian, Inc.),
 the Gaussian(R) 98 system (copyright 1998, Gaussian, Inc.),
 the Gaussian(R) 94 system (copyright 1995, Gaussian, Inc.),
 the Gaussian 92(TM) system (copyright 1992, Gaussian, Inc.),
 the Gaussian 90(TM) system (copyright 1990, Gaussian, Inc.),
 the Gaussian 88(TM) system (copyright 1988, Gaussian, Inc.),
 the Gaussian 86(TM) system (copyright 1986, Carnegie Mellon
 University), and the Gaussian 82(TM) system (copyright 1983,
 Carnegie Mellon University). Gaussian is a federally registered
 trademark of Gaussian, Inc.
  
 This software contains proprietary and confidential information,
 including trade secrets, belonging to Gaussian, Inc.
  
 This software is provided under written license and may be
 used, copied, transmitted, or stored only in accord with that
 written license.
  
 The following legend is applicable only to US Government
 contracts under FAR:
  
                    RESTRICTED RIGHTS LEGEND
  
 Use, reproduction and disclosure by the US Government is
 subject to restrictions as set forth in subparagraphs (a)
 and (c) of the Commercial Computer Software - Restricted
 Rights clause in FAR 52.227-19.
  
 Gaussian, Inc.
 340 Quinnipiac St., Bldg. 40, Wallingford CT 06492
  
  
 ---------------------------------------------------------------
 Warning -- This program may not be used in any manner that
 competes with the business of Gaussian, Inc. or will provide
 assistance to any competitor of Gaussian, Inc.  The licensee
 of this program is prohibited from giving any competitor of
 Gaussian, Inc. access to this program.  By using this program,
 the user acknowledges that Gaussian, Inc. is engaged in the
 business of creating and licensing software in the field of
 computational chemistry and represents and warrants to the
 licensee that it is not a competitor of Gaussian, Inc. and that
 it will not use this program in any manner prohibited above.
 ---------------------------------------------------------------
  

 Cite this work as:
 Gaussian 09, Revision D.01,
 M. J. Frisch, G. W. Trucks, H. B. Schlegel, G. E. Scuseria, 
 M. A. Robb, J. R. Cheeseman, G. Scalmani, V. Barone, B. Mennucci, 
 G. A. Petersson, H. Nakatsuji, M. Caricato, X. Li, H. P. Hratchian, 
 A. F. Izmaylov, J. Bloino, G. Zheng, J. L. Sonnenberg, M. Hada, 
 M. Ehara, K. Toyota, R. Fukuda, J. Hasegawa, M. Ishida, T. Nakajima, 
 Y. Honda, O. Kitao, H. Nakai, T. Vreven, J. A. Montgomery, Jr., 
 J. E. Peralta, F. Ogliaro, M. Bearpark, J. J. Heyd, E. Brothers, 
 K. N. Kudin, V. N. Staroverov, T. Keith, R. Kobayashi, J. Normand, 
 K. Raghavachari, A. Rendell, J. C. Burant, S. S. Iyengar, J. Tomasi, 
 M. Cossi, N. Rega, J. M. Millam, M. Klene, J. E. Knox, J. B. Cross, 
 V. Bakken, C. Adamo, J. Jaramillo, R. Gomperts, R. E. Stratmann, 
 O. Yazyev, A. J. Austin, R. Cammi, C. Pomelli, J. W. Ochterski, 
 R. L. Martin, K. Morokuma, V. G. Zakrzewski, G. A. Voth, 
 P. Salvador, J. J. Dannenberg, S. Dapprich, A. D. Daniels, 
 O. Farkas, J. B. Foresman, J. V. Ortiz, J. Cioslowski, 
 and D. J. Fox, Gaussian, Inc., Wallingford CT, 2013.
 
 ******************************************
 Gaussian 09:  ES64L-G09RevD.01 24-Apr-2013
                15-Jun-2021 
 ******************************************
 -------------------
 #N B3LYP/STO-3G OPT
 -------------------
 1/14=-1,18=20,19=15,26=3,38=1/1,3;
 2/9=110,12=2,17=6,18=5,40=1/2;
 3/6=3,11=2,16=1,25=1,30=1,71=1,74=-5/1,2,3;
 4//1;
 5/5=2,38=5/2;
 6/7=2,8=2,9=2,10=2,28=1/1;
 7//1,2,3,16;
 1/14=-1,18=20,19=15,26=3/3(2);
 2/9=110/2;
 99//99;
 2/9=110/2;
 3/6=3,11=2,16=1,25=1,30=1,71=1,74=-5/1,2,3;
 4/5=5,16=3,69=1/1;
 5/5=2,38=5/2;
 7//1,2,3,16;
 1/14=-1,18=20,19=15,26=3/3(-5);
 2/9=110/2;
 6/7=2,8=2,9=2,10=2,19=2,28=1/1;
 99/9=1/99;
 -----
 1Naph
 -----
 Symbolic Z-matrix:
 Charge = -1 Multiplicity = 1
 N                     1.15441   0.10231  -0.07781 
 C                     2.31503   0.06342  -0.07751 
 C                     3.75231   0.03041  -0.07728 
 C                     4.43627   1.25798  -0.07696 
 C                     5.83086   1.28596  -0.0766 
 C                     6.54488   0.08654  -0.0771 
 C                     5.88253  -1.14981  -0.0776 
 C                     4.46491  -1.19884  -0.07758 
 C                     3.85522  -2.47772  -0.07746 
 C                     4.61586  -3.64827  -0.07757 
 C                     6.00097  -3.57841  -0.07758 
 C                     6.62975  -2.33672  -0.07765 
 N                     7.12716   3.53302  -0.07412 
 C                     6.53888   2.53305  -0.07541 
 H                     3.87727   2.19442  -0.07683 
 H                     7.63471   0.11535  -0.07691 
 H                     2.77233  -2.59274  -0.07746 
 H                     6.5897   -4.49211  -0.07752 
 H                     7.7183   -2.30449  -0.07747 
 

 GradGradGradGradGradGradGradGradGradGradGradGradGradGradGradGradGradGrad
 Berny optimization.
 Initialization pass.
                           ----------------------------
                           !    Initial Parameters    !
                           ! (Angstroms and Degrees)  !
 --------------------------                            --------------------------
 ! Name  Definition              Value          Derivative Info.                !
 --------------------------------------------------------------------------------
 ! R1    R(1,2)                  1.1613         estimate D2E/DX2                !
 ! R2    R(2,3)                  1.4377         estimate D2E/DX2                !
 ! R3    R(3,4)                  1.4053         estimate D2E/DX2                !
 ! R4    R(3,8)                  1.4209         estimate D2E/DX2                !
 ! R5    R(4,5)                  1.3949         estimate D2E/DX2                !
 ! R6    R(4,15)                 1.0906         estimate D2E/DX2                !
 ! R7    R(5,6)                  1.3959         estimate D2E/DX2                !
 ! R8    R(5,14)                 1.4341         estimate D2E/DX2                !
 ! R9    R(6,7)                  1.4026         estimate D2E/DX2                !
 ! R10   R(6,16)                 1.0902         estimate D2E/DX2                !
 ! R11   R(7,8)                  1.4185         estimate D2E/DX2                !
 ! R12   R(7,12)                 1.4025         estimate D2E/DX2                !
 ! R13   R(8,9)                  1.4168         estimate D2E/DX2                !
 ! R14   R(9,10)                 1.396          estimate D2E/DX2                !
 ! R15   R(9,17)                 1.089          estimate D2E/DX2                !
 ! R16   R(10,11)                1.3869         estimate D2E/DX2                !
 ! R17   R(11,12)                1.3918         estimate D2E/DX2                !
 ! R18   R(11,18)                1.0869         estimate D2E/DX2                !
 ! R19   R(12,19)                1.089          estimate D2E/DX2                !
 ! R20   R(13,14)                1.1602         estimate D2E/DX2                !
 ! A1    A(2,3,4)              117.8094         estimate D2E/DX2                !
 ! A2    A(2,3,8)              121.4167         estimate D2E/DX2                !
 ! A3    A(4,3,8)              120.7739         estimate D2E/DX2                !
 ! A4    A(3,4,5)              120.2744         estimate D2E/DX2                !
 ! A5    A(3,4,15)             120.0402         estimate D2E/DX2                !
 ! A6    A(5,4,15)             119.6853         estimate D2E/DX2                !
 ! A7    A(4,5,6)              119.6161         estimate D2E/DX2                !
 ! A8    A(4,5,14)             120.7346         estimate D2E/DX2                !
 ! A9    A(6,5,14)             119.6493         estimate D2E/DX2                !
 ! A10   A(5,6,7)              121.0552         estimate D2E/DX2                !
 ! A11   A(5,6,16)             119.2512         estimate D2E/DX2                !
 ! A12   A(7,6,16)             119.6936         estimate D2E/DX2                !
 ! A13   A(6,7,8)              120.1601         estimate D2E/DX2                !
 ! A14   A(6,7,12)             119.6282         estimate D2E/DX2                !
 ! A15   A(8,7,12)             120.2116         estimate D2E/DX2                !
 ! A16   A(3,8,7)              118.1202         estimate D2E/DX2                !
 ! A17   A(3,8,9)              124.4101         estimate D2E/DX2                !
 ! A18   A(7,8,9)              117.4697         estimate D2E/DX2                !
 ! A19   A(8,9,10)             121.4947         estimate D2E/DX2                !
 ! A20   A(8,9,17)             121.5519         estimate D2E/DX2                !
 ! A21   A(10,9,17)            116.9534         estimate D2E/DX2                !
 ! A22   A(9,10,11)            120.129          estimate D2E/DX2                !
 ! A23   A(10,11,12)           119.7446         estimate D2E/DX2                !
 ! A24   A(10,11,18)           119.9078         estimate D2E/DX2                !
 ! A25   A(12,11,18)           120.3476         estimate D2E/DX2                !
 ! A26   A(7,12,11)            120.9503         estimate D2E/DX2                !
 ! A27   A(7,12,19)            120.4966         estimate D2E/DX2                !
 ! A28   A(11,12,19)           118.5531         estimate D2E/DX2                !
 ! A29   L(1,2,3,17,-1)        180.6035         estimate D2E/DX2                !
 ! A30   L(5,14,13,16,-1)      179.117          estimate D2E/DX2                !
 ! A31   L(1,2,3,17,-2)        179.9942         estimate D2E/DX2                !
 ! A32   L(5,14,13,16,-2)      180.0199         estimate D2E/DX2                !
 ! D1    D(2,3,4,5)            179.994          estimate D2E/DX2                !
 ! D2    D(2,3,4,15)             0.0038         estimate D2E/DX2                !
 ! D3    D(8,3,4,5)             -0.0158         estimate D2E/DX2                !
 ! D4    D(8,3,4,15)           179.994          estimate D2E/DX2                !
 ! D5    D(2,3,8,7)            179.9874         estimate D2E/DX2                !
 ! D6    D(2,3,8,9)             -0.0323         estimate D2E/DX2                !
 ! D7    D(4,3,8,7)             -0.0024         estimate D2E/DX2                !
 ! D8    D(4,3,8,9)            179.9778         estimate D2E/DX2                !
 ! D9    D(3,4,5,6)              0.0255         estimate D2E/DX2                !
 ! D10   D(3,4,5,14)          -179.96           estimate D2E/DX2                !
 ! D11   D(15,4,5,6)          -179.9843         estimate D2E/DX2                !
 ! D12   D(15,4,5,14)            0.0302         estimate D2E/DX2                !
 ! D13   D(4,5,6,7)             -0.0172         estimate D2E/DX2                !
 ! D14   D(4,5,6,16)           179.9943         estimate D2E/DX2                !
 ! D15   D(14,5,6,7)           179.9685         estimate D2E/DX2                !
 ! D16   D(14,5,6,16)           -0.0201         estimate D2E/DX2                !
 ! D17   D(5,6,7,8)             -0.0011         estimate D2E/DX2                !
 ! D18   D(5,6,7,12)          -179.9791         estimate D2E/DX2                !
 ! D19   D(16,6,7,8)           179.9873         estimate D2E/DX2                !
 ! D20   D(16,6,7,12)            0.0094         estimate D2E/DX2                !
 ! D21   D(6,7,8,3)              0.0108         estimate D2E/DX2                !
 ! D22   D(6,7,8,9)           -179.9709         estimate D2E/DX2                !
 ! D23   D(12,7,8,3)           179.9886         estimate D2E/DX2                !
 ! D24   D(12,7,8,9)             0.0069         estimate D2E/DX2                !
 ! D25   D(6,7,12,11)          179.9731         estimate D2E/DX2                !
 ! D26   D(6,7,12,19)           -0.0101         estimate D2E/DX2                !
 ! D27   D(8,7,12,11)           -0.0048         estimate D2E/DX2                !
 ! D28   D(8,7,12,19)         -179.9881         estimate D2E/DX2                !
 ! D29   D(3,8,9,10)          -179.9903         estimate D2E/DX2                !
 ! D30   D(3,8,9,17)             0.021          estimate D2E/DX2                !
 ! D31   D(7,8,9,10)            -0.0099         estimate D2E/DX2                !
 ! D32   D(7,8,9,17)          -179.9986         estimate D2E/DX2                !
 ! D33   D(8,9,10,11)            0.0106         estimate D2E/DX2                !
 ! D34   D(17,9,10,11)         179.9998         estimate D2E/DX2                !
 ! D35   D(9,10,11,12)          -0.0081         estimate D2E/DX2                !
 ! D36   D(9,10,11,18)         179.9911         estimate D2E/DX2                !
 ! D37   D(10,11,12,7)           0.0053         estimate D2E/DX2                !
 ! D38   D(10,11,12,19)        179.9888         estimate D2E/DX2                !
 ! D39   D(18,11,12,7)        -179.9939         estimate D2E/DX2                !
 ! D40   D(18,11,12,19)         -0.0104         estimate D2E/DX2                !
 --------------------------------------------------------------------------------
 Trust Radius=3.00D-01 FncErr=1.00D-07 GrdErr=1.00D-06
 Number of steps in this run=    102 maximum allowed number of steps=    114.
 GradGradGradGradGradGradGradGradGradGradGradGradGradGradGradGradGradGrad

                          Input orientation:                          
 ---------------------------------------------------------------------
 Center     Atomic      Atomic             Coordinates (Angstroms)
 Number     Number       Type             X           Y           Z
 ---------------------------------------------------------------------
      1          7           0        1.154410    0.102310   -0.077810
      2          6           0        2.315030    0.063420   -0.077510
      3          6           0        3.752310    0.030410   -0.077280
      4          6           0        4.436270    1.257980   -0.076960
      5          6           0        5.830860    1.285960   -0.076600
      6          6           0        6.544880    0.086540   -0.077100
      7          6           0        5.882530   -1.149810   -0.077600
      8          6           0        4.464910   -1.198840   -0.077580
      9          6           0        3.855220   -2.477720   -0.077460
     10          6           0        4.615860   -3.648270   -0.077570
     11          6           0        6.000970   -3.578410   -0.077580
     12          6           0        6.629750   -2.336720   -0.077650
     13          7           0        7.127160    3.533020   -0.074120
     14          6           0        6.538880    2.533050   -0.075410
     15          1           0        3.877270    2.194420   -0.076830
     16          1           0        7.634710    0.115350   -0.076910
     17          1           0        2.772330   -2.592740   -0.077460
     18          1           0        6.589700   -4.492110   -0.077520
     19          1           0        7.718300   -2.304490   -0.077470
 ---------------------------------------------------------------------
                    Distance matrix (angstroms):
                    1          2          3          4          5
     1  N    0.000000
     2  C    1.161271   0.000000
     3  C    2.598895   1.437659   0.000000
     4  C    3.479393   2.434468   1.405251   0.000000
     5  C    4.823921   3.722320   2.428328   1.394871   0.000000
     6  C    5.390493   4.229913   2.793134   2.412158   1.395863
     7  C    4.891107   3.768154   2.435314   2.808758   2.436318
     8  C    3.557021   2.493047   1.420864   2.456987   2.835498
     9  C    3.735094   2.971461   2.510240   3.780618   4.250699
    10  C    5.103772   4.366974   3.778678   4.909536   5.081619
    11  C    6.085790   5.181610   4.252065   5.083203   4.867344
    12  C    5.994015   4.937356   3.725985   4.211083   3.709722
    13  N    6.887926   5.932515   4.863939   3.523734   2.594162
    14  C    5.907709   4.892850   3.745422   2.459019   1.434060
    15  H    3.433787   2.642301   2.167615   1.090597   2.154487
    16  H    6.480313   5.319933   3.883329   3.396413   2.150396
    17  H    3.143399   2.695238   2.800228   4.194847   4.939526
    18  H    7.116957   6.247052   5.338911   6.140097   5.827687
    19  H    6.991233   5.899349   4.602264   4.843853   4.056324
                    6          7          8          9         10
     6  C    0.000000
     7  C    1.402594   0.000000
     8  C    2.445092   1.418468   0.000000
     9  C    3.716141   2.423496   1.416777   0.000000
    10  C    4.203561   2.801206   2.454077   1.395980   0.000000
    11  C    3.705091   2.431486   2.832284   2.411589   1.386871
    12  C    2.424746   1.402531   2.445670   2.778110   2.403314
    13  N    3.495323   4.845412   5.429373   6.843581   7.607731
    14  C    2.446518   3.740890   4.269468   5.684176   6.473541
    15  H    3.399897   3.899352   3.443768   4.672192   5.889189
    16  H    1.090211   2.161195   3.431432   4.583509   4.824758
    17  H    4.627167   3.428614   2.192666   1.088981   2.124323
    18  H    4.578869   3.416293   3.919229   3.396343   2.146651
    19  H    2.663445   2.168718   3.436133   3.866962   3.380958
                   11         12         13         14         15
    11  C    0.000000
    12  C    1.391818   0.000000
    13  N    7.200052   5.890779   0.000000
    14  C    6.135087   4.870618   1.160179   0.000000
    15  H    6.151071   5.301639   3.514775   2.683065   0.000000
    16  H    4.038932   2.650017   3.455153   2.654453   4.294285
    17  H    3.375746   3.865907   7.515949   6.360867   4.913023
    18  H    1.086946   2.155762   8.043108   7.025344   7.215744
    19  H    2.138246   1.089027   5.867366   4.979240   5.915548
                   16         17         18         19
    16  H    0.000000
    17  H    5.565653   0.000000
    18  H    4.724482   4.263792   0.000000
    19  H    2.421283   4.954362   2.461589   0.000000
 Stoichiometry    C12H5N2(1-)
 Framework group  C1[X(C12H5N2)]
 Deg. of freedom    51
 Full point group                 C1      NOp   1
 Largest Abelian subgroup         C1      NOp   1
 Largest concise Abelian subgroup C1      NOp   1
                         Standard orientation:                         
 ---------------------------------------------------------------------
 Center     Atomic      Atomic             Coordinates (Angstroms)
 Number     Number       Type             X           Y           Z
 ---------------------------------------------------------------------
      1          7           0        0.621845    3.792439    0.000058
      2          6           0        0.323097    2.670253    0.000025
      3          6           0       -0.061366    1.284954    0.000130
      4          6           0       -1.434368    0.985631    0.000399
      5          6           0       -1.864852   -0.341150    0.000385
      6          6           0       -0.923478   -1.371803    0.000644
      7          6           0        0.451673   -1.095707    0.000558
      8          6           0        0.908972    0.247025    0.000179
      9          6           0        2.309588    0.460404   -0.000529
     10          6           0        3.209833   -0.606516   -0.000639
     11          6           0        2.742007   -1.912100   -0.000271
     12          6           0        1.371462   -2.154518    0.000379
     13          7           0       -4.390954   -0.931477   -0.001008
     14          6           0       -3.263504   -0.657852   -0.000204
     15          1           0       -2.168897    1.791776    0.000457
     16          1           0       -1.266535   -2.406632    0.000727
     17          1           0        2.733155    1.463635   -0.000830
     18          1           0        3.446163   -2.740118   -0.000504
     19          1           0        1.025502   -3.187131    0.000473
 ---------------------------------------------------------------------
 Rotational constants (GHZ):      0.9908893      0.6154940      0.3796644
 Standard basis: STO-3G (5D, 7F)
 There are    75 symmetry adapted cartesian basis functions of A   symmetry.
 There are    75 symmetry adapted basis functions of A   symmetry.
    75 basis functions,   225 primitive gaussians,    75 cartesian basis functions
    46 alpha electrons       46 beta electrons
       nuclear repulsion energy       709.1191011356 Hartrees.
 NAtoms=   19 NActive=   19 NUniq=   19 SFac= 1.00D+00 NAtFMM=   60 NAOKFM=F Big=F
 Integral buffers will be    131072 words long.
 Raffenetti 2 integral format.
 Two-electron integral symmetry is turned on.
 One-electron integrals computed using PRISM.
 NBasis=    75 RedAO= T EigKep=  1.55D-01  NBF=    75
 NBsUse=    75 1.00D-06 EigRej= -1.00D+00 NBFU=    75
 ExpMin= 1.69D-01 ExpMax= 9.91D+01 ExpMxC= 9.91D+01 IAcc=1 IRadAn=         1 AccDes= 0.00D+00
 Harris functional with IExCor=  402 and IRadAn=       1 diagonalized for initial guess.
 HarFok:  IExCor=  402 AccDes= 0.00D+00 IRadAn=         1 IDoV= 1 UseB2=F ITyADJ=14
 ICtDFT=  3500011 ScaDFX=  1.000000  1.000000  1.000000  1.000000
 FoFCou: FMM=F IPFlag=           0 FMFlag=      100000 FMFlg1=           0
         NFxFlg=           0 DoJE=T BraDBF=F KetDBF=T FulRan=T
         wScrn=  0.000000 ICntrl=     500 IOpCl=  0 I1Cent=   200000004 NGrid=           0
         NMat0=    1 NMatS0=      1 NMatT0=    0 NMatD0=    1 NMtDS0=    0 NMtDT0=    0
 Petite list used in FoFCou.
 Keep R1 ints in memory in canonical form, NReq=4993994.
 Requested convergence on RMS density matrix=1.00D-08 within 128 cycles.
 Requested convergence on MAX density matrix=1.00D-06.
 Requested convergence on             energy=1.00D-06.
 No special actions if energy rises.
 Integral accuracy reduced to 1.0D-05 until final iterations.
 EnCoef did     5 forward-backward iterations
 EnCoef did     2 forward-backward iterations
 Rare condition: small coef for last iteration:  0.000D+00
 Problem detected with inexpensive integrals.
 Switching to full accuracy and repeating last cycle.
 EnCoef did     5 forward-backward iterations
 SCF Done:  E(RB3LYP) =  -562.475278487     A.U. after   32 cycles
            NFock= 32  Conv=0.17D-08     -V/T= 2.0129

 **********************************************************************

            Population analysis using the SCF density.

 **********************************************************************

 Orbital symmetries:
       Occupied  (A) (A) (A) (A) (A) (A) (A) (A) (A) (A) (A) (A)
                 (A) (A) (A) (A) (A) (A) (A) (A) (A) (A) (A) (A)
                 (A) (A) (A) (A) (A) (A) (A) (A) (A) (A) (A) (A)
                 (A) (A) (A) (A) (A) (A) (A) (A) (A) (A)
       Virtual   (A) (A) (A) (A) (A) (A) (A) (A) (A) (A) (A) (A)
                 (A) (A) (A) (A) (A) (A) (A) (A) (A) (A) (A) (A)
                 (A) (A) (A) (A) (A)
 The electronic state is 1-A.
 Alpha  occ. eigenvalues --  -13.99803 -13.98247  -9.90635  -9.90510  -9.89618
 Alpha  occ. eigenvalues --   -9.89044  -9.88696  -9.87742  -9.86690  -9.86594
 Alpha  occ. eigenvalues --   -9.83425  -9.81036  -9.79446  -9.66655  -0.75073
 Alpha  occ. eigenvalues --   -0.73508  -0.69151  -0.62637  -0.60139  -0.54429
 Alpha  occ. eigenvalues --   -0.51862  -0.45945  -0.43108  -0.41273  -0.35924
 Alpha  occ. eigenvalues --   -0.31734  -0.30479  -0.28864  -0.26377  -0.22712
 Alpha  occ. eigenvalues --   -0.22614  -0.21290  -0.19858  -0.18842  -0.17762
 Alpha  occ. eigenvalues --   -0.15989  -0.15875  -0.15179  -0.14266  -0.13704
 Alpha  occ. eigenvalues --   -0.11279  -0.10930  -0.07660  -0.02894   0.01160
 Alpha  occ. eigenvalues --    0.13528
 Alpha virt. eigenvalues --    0.16459   0.20242   0.26393   0.26515   0.28417
 Alpha virt. eigenvalues --    0.30648   0.35218   0.39927   0.44065   0.47823
 Alpha virt. eigenvalues --    0.48103   0.54097   0.55722   0.55994   0.60370
 Alpha virt. eigenvalues --    0.61073   0.64722   0.65598   0.69833   0.73135
 Alpha virt. eigenvalues --    0.74148   0.79124   0.80981   0.85677   0.88583
 Alpha virt. eigenvalues --    0.98482   0.99448   1.13737   1.14952
          Condensed to atoms (all electrons):
               1          2          3          4          5          6
     1  N    6.581131   0.684944  -0.011379  -0.000225  -0.000001   0.000000
     2  C    0.684944   4.890294   0.431151  -0.033803   0.001019   0.000023
     3  C   -0.011379   0.431151   4.777752   0.504429  -0.030467  -0.010874
     4  C   -0.000225  -0.033803   0.504429   4.828825   0.488167  -0.032041
     5  C   -0.000001   0.001019  -0.030467   0.488167   4.761127   0.498047
     6  C    0.000000   0.000023  -0.010874  -0.032041   0.498047   4.840267
     7  C   -0.000002   0.000943  -0.029768  -0.010085  -0.029497   0.486757
     8  C   -0.000008  -0.029082   0.456542  -0.027937  -0.009118  -0.027899
     9  C   -0.000080  -0.004058  -0.027595   0.000734   0.000043   0.000963
    10  C    0.000000   0.000019   0.000923  -0.000010   0.000000   0.000023
    11  C    0.000000   0.000000   0.000032   0.000000  -0.000010   0.000964
    12  C    0.000000  -0.000007   0.000982   0.000042   0.000990  -0.034640
    13  N    0.000000   0.000000  -0.000001  -0.000105  -0.011633  -0.000199
    14  C    0.000000  -0.000007   0.000972  -0.030928   0.430208  -0.031588
    15  H    0.000056  -0.004001  -0.024407   0.389713  -0.025861   0.001443
    16  H    0.000000   0.000001   0.000044   0.001459  -0.026718   0.389971
    17  H   -0.000249   0.001593  -0.003017   0.000004  -0.000001  -0.000022
    18  H    0.000000   0.000000   0.000002   0.000000   0.000000  -0.000022
    19  H    0.000000   0.000000  -0.000017  -0.000001   0.000032  -0.004769
               7          8          9         10         11         12
     1  N   -0.000002  -0.000008  -0.000080   0.000000   0.000000   0.000000
     2  C    0.000943  -0.029082  -0.004058   0.000019   0.000000  -0.000007
     3  C   -0.029768   0.456542  -0.027595   0.000923   0.000032   0.000982
     4  C   -0.010085  -0.027937   0.000734  -0.000010   0.000000   0.000042
     5  C   -0.029497  -0.009118   0.000043   0.000000  -0.000010   0.000990
     6  C    0.486757  -0.027899   0.000963   0.000023   0.000964  -0.034640
     7  C    4.782064   0.464703  -0.033228  -0.012053  -0.030430   0.486669
     8  C    0.464703   4.804522   0.473090  -0.025550  -0.011039  -0.029238
     9  C   -0.033228   0.473090   4.896944   0.488694  -0.030555  -0.013689
    10  C   -0.012053  -0.025550   0.488694   5.385013   0.465261  -0.029273
    11  C   -0.030430  -0.011039  -0.030555   0.465261   4.868543   0.503795
    12  C    0.486669  -0.029238  -0.013689  -0.029273   0.503795   4.871433
    13  N   -0.000001   0.000000   0.000000   0.000000   0.000000   0.000000
    14  C    0.001004   0.000013   0.000000   0.000000   0.000000  -0.000008
    15  H    0.000042   0.001283  -0.000017   0.000000   0.000000   0.000001
    16  H   -0.024935   0.001401  -0.000021   0.000000   0.000033  -0.004620
    17  H    0.001304  -0.030806   0.387026  -0.036821   0.002061  -0.000009
    18  H    0.001402  -0.000037   0.002058  -0.035284   0.385955  -0.032696
    19  H   -0.026939   0.001332   0.000090   0.001692  -0.027041   0.383242
              13         14         15         16         17         18
     1  N    0.000000   0.000000   0.000056   0.000000  -0.000249   0.000000
     2  C    0.000000  -0.000007  -0.004001   0.000001   0.001593   0.000000
     3  C   -0.000001   0.000972  -0.024407   0.000044  -0.003017   0.000002
     4  C   -0.000105  -0.030928   0.389713   0.001459   0.000004   0.000000
     5  C   -0.011633   0.430208  -0.025861  -0.026718  -0.000001   0.000000
     6  C   -0.000199  -0.031588   0.001443   0.389971  -0.000022  -0.000022
     7  C   -0.000001   0.001004   0.000042  -0.024935   0.001304   0.001402
     8  C    0.000000   0.000013   0.001283   0.001401  -0.030806  -0.000037
     9  C    0.000000   0.000000  -0.000017  -0.000021   0.387026   0.002058
    10  C    0.000000   0.000000   0.000000   0.000000  -0.036821  -0.035284
    11  C    0.000000   0.000000   0.000000   0.000033   0.002061   0.385955
    12  C    0.000000  -0.000008   0.000001  -0.004620  -0.000009  -0.032696
    13  N    6.577639   0.687676   0.000066   0.000063   0.000000   0.000000
    14  C    0.687676   4.892237  -0.003814  -0.003966   0.000000   0.000000
    15  H    0.000066  -0.003814   0.595624  -0.000040   0.000000   0.000000
    16  H    0.000063  -0.003966  -0.000040   0.601406   0.000001  -0.000002
    17  H    0.000000   0.000000   0.000000   0.000001   0.642433  -0.000014
    18  H    0.000000   0.000000   0.000000  -0.000002  -0.000014   0.652857
    19  H    0.000000  -0.000001   0.000000   0.000951   0.000004  -0.003247
              19
     1  N    0.000000
     2  C    0.000000
     3  C   -0.000017
     4  C   -0.000001
     5  C    0.000032
     6  C   -0.004769
     7  C   -0.026939
     8  C    0.001332
     9  C    0.000090
    10  C    0.001692
    11  C   -0.027041
    12  C    0.383242
    13  N    0.000000
    14  C   -0.000001
    15  H    0.000000
    16  H    0.000951
    17  H    0.000004
    18  H   -0.003247
    19  H    0.636605
 Mulliken charges:
               1
     1  N   -0.254188
     2  C    0.060973
     3  C   -0.035302
     4  C   -0.078239
     5  C   -0.046326
     6  C   -0.076406
     7  C   -0.027952
     8  C   -0.012171
     9  C   -0.140401
    10  C   -0.202634
    11  C   -0.127570
    12  C   -0.102973
    13  N   -0.253505
    14  C    0.058201
    15  H    0.069912
    16  H    0.064973
    17  H    0.036514
    18  H    0.029028
    19  H    0.038066
 Sum of Mulliken charges =  -1.00000
 Mulliken charges with hydrogens summed into heavy atoms:
               1
     1  N   -0.254188
     2  C    0.060973
     3  C   -0.035302
     4  C   -0.008327
     5  C   -0.046326
     6  C   -0.011433
     7  C   -0.027952
     8  C   -0.012171
     9  C   -0.103888
    10  C   -0.202634
    11  C   -0.098542
    12  C   -0.064906
    13  N   -0.253505
    14  C    0.058201
 Electronic spatial extent (au):  <R**2>=           2694.6292
 Charge=             -1.0000 electrons
 Dipole moment (field-independent basis, Debye):
    X=             -3.2969    Y=             -1.6665    Z=              0.0739  Tot=              3.6949
 Quadrupole moment (field-independent basis, Debye-Ang):
   XX=           -125.6903   YY=            -95.2500   ZZ=            -74.0418
   XY=             -4.8281   XZ=              0.5119   YZ=              0.0096
 Traceless Quadrupole moment (field-independent basis, Debye-Ang):
   XX=            -27.3629   YY=              3.0774   ZZ=             24.2855
   XY=             -4.8281   XZ=              0.5119   YZ=              0.0096
 Octapole moment (field-independent basis, Debye-Ang**2):
  XXX=             23.1429  YYY=            -81.1574  ZZZ=              0.0562  XYY=            -21.6303
  XXY=             44.6261  XXZ=              2.4159  XZZ=             -3.9509  YZZ=              3.0883
  YYZ=             -0.2217  XYZ=              0.0693
 Hexadecapole moment (field-independent basis, Debye-Ang**3):
 XXXX=          -3056.0524 YYYY=          -1674.7393 ZZZZ=            -58.2250 XXXY=            -83.7138
 XXXZ=              9.5234 YYYX=            -50.5931 YYYZ=              0.5304 ZZZX=              0.3510
 ZZZY=             -0.0002 XXYY=           -600.6209 XXZZ=           -353.9682 YYZZ=           -229.8244
 XXYZ=             -0.3729 YYXZ=             -0.6978 ZZXY=              6.4906
 N-N= 7.091191011356D+02 E-N=-2.740060529573D+03  KE= 5.552879276488D+02
 Calling FoFJK, ICntrl=      2127 FMM=F ISym2X=0 I1Cent= 0 IOpClX= 0 NMat=1 NMatS=1 NMatT=0.
 ***** Axes restored to original set *****
 -------------------------------------------------------------------
 Center     Atomic                   Forces (Hartrees/Bohr)
 Number     Number              X              Y              Z
 -------------------------------------------------------------------
      1        7          -0.103833208    0.004589436    0.000802585
      2        6           0.086891787   -0.006497375   -0.002942141
      3        6          -0.002392842    0.032372190    0.000614368
      4        6          -0.028483388    0.000334694    0.002510243
      5        6           0.014918431    0.001498250   -0.001748672
      6        6           0.013350041    0.009688560    0.001034914
      7        6           0.022352682    0.008634257   -0.001638595
      8        6          -0.027292863   -0.022094937   -0.008727055
      9        6           0.018571955   -0.010418855   -0.007543855
     10        6          -0.053574483   -0.045767117    0.017083713
     11        6           0.013395055    0.028877196   -0.008206946
     12        6           0.023550186   -0.036878911    0.007046655
     13        7           0.052529293    0.090126150    0.000161482
     14        6          -0.042885465   -0.070770321   -0.000355626
     15        1          -0.003293056    0.004541577    0.001537761
     16        1           0.005892775   -0.000624984   -0.000059525
     17        1          -0.012321747    0.011885704    0.003826798
     18        1           0.013067744   -0.008806451   -0.007638727
     19        1           0.009557100    0.009310937    0.004242623
 -------------------------------------------------------------------
 Cartesian Forces:  Max     0.103833208 RMS     0.029642403

 GradGradGradGradGradGradGradGradGradGradGradGradGradGradGradGradGradGrad
 Berny optimization.
 FormGI is forming the generalized inverse of G from B-inverse, IUseBI=4.
 Internal  Forces:  Max     0.104315309 RMS     0.019853742
 Search for a local minimum.
 Step number   1 out of a maximum of  102
 All quantities printed in internal units (Hartrees-Bohrs-Radians)
 Mixed Optimization -- RFO/linear search
 Second derivative matrix not updated -- first step.
 ITU=  0
     Eigenvalues ---    0.01591   0.01591   0.01867   0.01877   0.01916
     Eigenvalues ---    0.01943   0.01969   0.02023   0.02068   0.02082
     Eigenvalues ---    0.02098   0.02121   0.02122   0.02150   0.02193
     Eigenvalues ---    0.02220   0.04864   0.04864   0.16000   0.16000
     Eigenvalues ---    0.16000   0.16000   0.16000   0.22392   0.23280
     Eigenvalues ---    0.23489   0.23534   0.24615   0.25000   0.25000
     Eigenvalues ---    0.25000   0.34744   0.34788   0.34925   0.34931
     Eigenvalues ---    0.35168   0.38394   0.39908   0.40285   0.40411
     Eigenvalues ---    0.40837   0.43021   0.43792   0.44987   0.45145
     Eigenvalues ---    0.45799   0.45986   0.46198   0.47338   1.26965
     Eigenvalues ---    1.27677
 RFO step:  Lambda=-5.37864703D-02 EMin= 1.59059885D-02
 Linear search not attempted -- first point.
 Maximum step size (   0.300) exceeded in Quadratic search.
    -- Step size scaled by   0.943
 Iteration  1 RMS(Cart)=  0.05634631 RMS(Int)=  0.00190190
 Iteration  2 RMS(Cart)=  0.00212738 RMS(Int)=  0.00072241
 Iteration  3 RMS(Cart)=  0.00000431 RMS(Int)=  0.00072240
 Iteration  4 RMS(Cart)=  0.00000001 RMS(Int)=  0.00072240
 Variable       Old X    -DE/DX   Delta X   Delta X   Delta X     New X
                                 (Linear)    (Quad)   (Total)
    R1        2.19448   0.10393   0.00000   0.07404   0.07404   2.26853
    R2        2.71678   0.01690   0.00000   0.03518   0.03518   2.75196
    R3        2.65554   0.00677   0.00000   0.01194   0.01195   2.66748
    R4        2.68504   0.03923   0.00000   0.07743   0.07747   2.76252
    R5        2.63592   0.03537   0.00000   0.06362   0.06358   2.69950
    R6        2.06093   0.00559   0.00000   0.01313   0.01313   2.07406
    R7        2.63780   0.02270   0.00000   0.04148   0.04144   2.67924
    R8        2.70998   0.02159   0.00000   0.04446   0.04446   2.75444
    R9        2.65052   0.02959   0.00000   0.05593   0.05592   2.70644
   R10        2.06020   0.00587   0.00000   0.01378   0.01378   2.07398
   R11        2.68052   0.03964   0.00000   0.07851   0.07856   2.75908
   R12        2.65040   0.03033   0.00000   0.05715   0.05692   2.70732
   R13        2.67732   0.01774   0.00000   0.03396   0.03420   2.71152
   R14        2.63802   0.01774   0.00000   0.03176   0.03200   2.67002
   R15        2.05788   0.01099   0.00000   0.02571   0.02571   2.08359
   R16        2.62081   0.05205   0.00000   0.09215   0.09214   2.71294
   R17        2.63016   0.01359   0.00000   0.02505   0.02483   2.65498
   R18        2.05403   0.01448   0.00000   0.03368   0.03368   2.08771
   R19        2.05796   0.00983   0.00000   0.02300   0.02300   2.08097
   R20        2.19242   0.10432   0.00000   0.07392   0.07392   2.26634
    A1        2.05616   0.00021   0.00000   0.00157   0.00156   2.05772
    A2        2.11912  -0.00366   0.00000  -0.01045  -0.01046   2.10867
    A3        2.10790   0.00345   0.00000   0.00888   0.00887   2.11677
    A4        2.09919   0.00237   0.00000   0.00498   0.00488   2.10406
    A5        2.09510  -0.00171   0.00000  -0.00479  -0.00474   2.09036
    A6        2.08890  -0.00067   0.00000  -0.00019  -0.00014   2.08877
    A7        2.08770   0.00033   0.00000  -0.00044  -0.00059   2.08710
    A8        2.10722  -0.00225   0.00000  -0.00626  -0.00620   2.10102
    A9        2.08827   0.00192   0.00000   0.00670   0.00676   2.09504
   A10        2.11281   0.00109   0.00000   0.00490   0.00479   2.11761
   A11        2.08133   0.00025   0.00000   0.00107   0.00112   2.08245
   A12        2.08905  -0.00134   0.00000  -0.00597  -0.00592   2.08313
   A13        2.09719  -0.00252   0.00000  -0.00555  -0.00517   2.09202
   A14        2.08791   0.01174   0.00000   0.03553   0.03591   2.12382
   A15        2.09809  -0.00922   0.00000  -0.02998  -0.03074   2.06735
   A16        2.06159  -0.00472   0.00000  -0.01277  -0.01287   2.04871
   A17        2.17137   0.00028   0.00000   0.00171   0.00147   2.17284
   A18        2.05023   0.00445   0.00000   0.01105   0.01058   2.06082
   A19        2.12048   0.01609   0.00000   0.05163   0.05141   2.17189
   A20        2.12148  -0.02154   0.00000  -0.08532  -0.08552   2.03596
   A21        2.04122   0.00545   0.00000   0.03370   0.03334   2.07456
   A22        2.09665  -0.02798   0.00000  -0.09042  -0.09058   2.00607
   A23        2.08994   0.02112   0.00000   0.07234   0.07132   2.16126
   A24        2.09279  -0.00417   0.00000  -0.00798  -0.00760   2.08518
   A25        2.10046  -0.01695   0.00000  -0.06437  -0.06396   2.03650
   A26        2.11098  -0.00446   0.00000  -0.01460  -0.01569   2.09529
   A27        2.10306  -0.00706   0.00000  -0.03367  -0.03323   2.06983
   A28        2.06914   0.01152   0.00000   0.04828   0.04876   2.11791
   A29        3.15213   0.00241   0.00000   0.03266   0.03266   3.18478
   A30        3.12618   0.00095   0.00000   0.00878   0.00878   3.13496
   A31        3.14149   0.00178   0.00000   0.02411   0.02411   3.16560
   A32        3.14194   0.00008   0.00000   0.00075   0.00075   3.14269
    D1        3.14149   0.00043   0.00000   0.00560   0.00585  -3.13584
    D2        0.00007   0.00037   0.00000   0.00465   0.00472   0.00479
    D3       -0.00028   0.00105   0.00000   0.01336   0.01363   0.01336
    D4        3.14149   0.00098   0.00000   0.01242   0.01250  -3.12920
    D5        3.14137   0.00042   0.00000   0.00532   0.00498  -3.13683
    D6       -0.00056  -0.00305   0.00000  -0.03966  -0.03900  -0.03957
    D7       -0.00004  -0.00021   0.00000  -0.00273  -0.00302  -0.00306
    D8        3.14121  -0.00369   0.00000  -0.04771  -0.04701   3.09420
    D9        0.00045  -0.00109   0.00000  -0.01389  -0.01390  -0.01345
   D10       -3.14089  -0.00044   0.00000  -0.00560  -0.00583   3.13646
   D11       -3.14132  -0.00103   0.00000  -0.01295  -0.01277   3.12910
   D12        0.00053  -0.00037   0.00000  -0.00466  -0.00470  -0.00417
   D13       -0.00030   0.00032   0.00000   0.00391   0.00362   0.00332
   D14        3.14149   0.00057   0.00000   0.00725   0.00697  -3.13472
   D15        3.14104  -0.00033   0.00000  -0.00428  -0.00442   3.13662
   D16       -0.00035  -0.00008   0.00000  -0.00094  -0.00107  -0.00142
   D17       -0.00002   0.00051   0.00000   0.00671   0.00689   0.00687
   D18       -3.14123   0.00059   0.00000   0.00771   0.00713  -3.13410
   D19        3.14137   0.00026   0.00000   0.00336   0.00354  -3.13828
   D20        0.00016   0.00034   0.00000   0.00436   0.00377   0.00394
   D21        0.00019  -0.00055   0.00000  -0.00718  -0.00711  -0.00692
   D22       -3.14108   0.00268   0.00000   0.03464   0.03398  -3.10711
   D23        3.14139  -0.00063   0.00000  -0.00817  -0.00732   3.13407
   D24        0.00012   0.00260   0.00000   0.03365   0.03376   0.03388
   D25        3.14112   0.00134   0.00000   0.01611   0.01507  -3.12700
   D26       -0.00018  -0.00025   0.00000  -0.00344  -0.00413  -0.00431
   D27       -0.00008   0.00141   0.00000   0.01710   0.01529   0.01521
   D28       -3.14138  -0.00018   0.00000  -0.00245  -0.00390   3.13790
   D29       -3.14142   0.00179   0.00000   0.02283   0.02351  -3.11791
   D30        0.00037  -0.00165   0.00000  -0.02097  -0.01943  -0.01907
   D31       -0.00017  -0.00166   0.00000  -0.02189  -0.02076  -0.02093
   D32       -3.14157  -0.00511   0.00000  -0.06569  -0.06370   3.07791
   D33        0.00019  -0.00335   0.00000  -0.04126  -0.03977  -0.03958
   D34        3.14159  -0.00006   0.00000   0.00060   0.00404  -3.13755
   D35       -0.00014   0.00741   0.00000   0.09254   0.09312   0.09298
   D36        3.14144   0.00566   0.00000   0.07020   0.06883  -3.07292
   D37        0.00009  -0.00648   0.00000  -0.08105  -0.08325  -0.08316
   D38        3.14140  -0.00493   0.00000  -0.06188  -0.06353   3.07787
   D39       -3.14149  -0.00473   0.00000  -0.05860  -0.05958   3.08212
   D40       -0.00018  -0.00318   0.00000  -0.03944  -0.03986  -0.04004
         Item               Value     Threshold  Converged?
 Maximum Force            0.104315     0.000450     NO 
 RMS     Force            0.019854     0.000300     NO 
 Maximum Displacement     0.213465     0.001800     NO 
 RMS     Displacement     0.056077     0.001200     NO 
 Predicted change in Energy=-3.039729D-02
 GradGradGradGradGradGradGradGradGradGradGradGradGradGradGradGradGradGrad

                          Input orientation:                          
 ---------------------------------------------------------------------
 Center     Atomic      Atomic             Coordinates (Angstroms)
 Number     Number       Type             X           Y           Z
 ---------------------------------------------------------------------
      1          7           0        1.085972    0.132716   -0.093415
      2          6           0        2.284136    0.060748   -0.111091
      3          6           0        3.740190    0.037587   -0.100900
      4          6           0        4.420334    1.274373   -0.083564
      5          6           0        5.848180    1.317918   -0.079975
      6          6           0        6.585356    0.106846   -0.077381
      7          6           0        5.927585   -1.165346   -0.082345
      8          6           0        4.469055   -1.229611   -0.098949
      9          6           0        3.849595   -2.523288   -0.059777
     10          6           0        4.555668   -3.746774   -0.030351
     11          6           0        5.984526   -3.622773   -0.093720
     12          6           0        6.664795   -2.393708   -0.070634
     13          7           0        7.128251    3.645981   -0.057964
     14          6           0        6.546619    2.597218   -0.068510
     15          1           0        3.848079    2.210874   -0.073661
     16          1           0        7.682144    0.145400   -0.068049
     17          1           0        2.748280   -2.543018   -0.010610
     18          1           0        6.607576   -4.533817   -0.141852
     19          1           0        7.765009   -2.347977   -0.061673
 ---------------------------------------------------------------------
                    Distance matrix (angstroms):
                    1          2          3          4          5
     1  N    0.000000
     2  C    1.200453   0.000000
     3  C    2.655933   1.456274   0.000000
     4  C    3.524407   2.457028   1.411572   0.000000
     5  C    4.907495   3.779399   2.466436   1.428514   0.000000
     6  C    5.499468   4.301600   2.846106   2.459772   1.417791
     7  C    5.012614   3.844328   2.496415   2.867758   2.484534
     8  C    3.647083   2.537528   1.461862   2.504506   2.896939
     9  C    3.833158   3.021678   2.563541   3.840383   4.330083
    10  C    5.205113   4.434366   3.871869   5.023252   5.227251
    11  C    6.172481   5.221256   4.293638   5.140899   4.942591
    12  C    6.124263   5.021570   3.803344   4.300302   3.800410
    13  N    6.989522   6.026788   4.949879   3.599721   2.656867
    14  C    5.991081   4.960268   3.798527   2.504243   1.457586
    15  H    3.456640   2.659015   2.176133   1.097546   2.190392
    16  H    6.596233   5.398844   3.943565   3.451699   2.176779
    17  H    3.151139   2.646720   2.766146   4.168161   4.951871
    18  H    7.229590   6.308970   5.396416   6.206649   5.901128
    19  H    7.124912   5.987016   4.678848   4.930390   4.136829
                    6          7          8          9         10
     6  C    0.000000
     7  C    1.432187   0.000000
     8  C    2.503061   1.460040   0.000000
     9  C    3.795037   2.482451   1.434875   0.000000
    10  C    4.355713   2.923804   2.519586   1.412912   0.000000
    11  C    3.777740   2.458113   2.832649   2.401655   1.435628
    12  C    2.501825   1.432651   2.485397   2.818202   2.506158
    13  N    3.580585   4.958937   5.553774   6.986378   7.827628
    14  C    2.490689   3.813172   4.354518   5.787366   6.649179
    15  H    3.452483   3.965259   3.496168   4.734183   5.999677
    16  H    1.097505   2.190145   3.495076   4.670161   4.992524
    17  H    4.663625   3.465705   2.166543   1.102589   2.171651
    18  H    4.641163   3.436935   3.936100   3.414004   2.200499
    19  H    2.723597   2.185216   3.480724   3.919337   3.501069
                   11         12         13         14         15
    11  C    0.000000
    12  C    1.404955   0.000000
    13  N    7.358272   6.057458   0.000000
    14  C    6.245388   4.992326   1.199295   0.000000
    15  H    6.212587   5.397784   3.580406   2.726061   0.000000
    16  H    4.133000   2.735338   3.544145   2.702005   4.355029
    17  H    3.412633   3.919820   7.582223   6.391617   4.879859
    18  H    1.104767   2.142058   8.196781   7.131673   7.287683
    19  H    2.190035   1.101200   6.027686   5.093081   6.010458
                   16         17         18         19
    16  H    0.000000
    17  H    5.619067   0.000000
    18  H    4.801584   4.344499   0.000000
    19  H    2.494761   5.020779   2.474667   0.000000
 Stoichiometry    C12H5N2(1-)
 Framework group  C1[X(C12H5N2)]
 Deg. of freedom    51
 Full point group                 C1      NOp   1
 Largest Abelian subgroup         C1      NOp   1
 Largest concise Abelian subgroup C1      NOp   1
                         Standard orientation:                         
 ---------------------------------------------------------------------
 Center     Atomic      Atomic             Coordinates (Angstroms)
 Number     Number       Type             X           Y           Z
 ---------------------------------------------------------------------
      1          7           0        0.581168    3.867507   -0.001377
      2          6           0        0.312639    2.697690    0.021184
      3          6           0       -0.075383    1.294068    0.016860
      4          6           0       -1.453696    0.989874    0.000903
      5          6           0       -1.897773   -0.367861    0.002995
      6          6           0       -0.943464   -1.416394    0.004681
      7          6           0        0.462516   -1.143694    0.008394
      8          6           0        0.935121    0.237699    0.019217
      9          6           0        2.350918    0.467404   -0.021028
     10          6           0        3.325899   -0.554896   -0.046285
     11          6           0        2.804345   -1.890655    0.022680
     12          6           0        1.433405   -2.197169    0.000982
     13          7           0       -4.492183   -0.940227   -0.016422
     14          6           0       -3.322032   -0.677606   -0.007065
     15          1           0       -2.191024    1.802758   -0.012318
     16          1           0       -1.289477   -2.457916   -0.000294
     17          1           0        2.680140    1.518330   -0.074591
     18          1           0        3.502940   -2.744944    0.074306
     19          1           0        1.079540   -3.239953   -0.003615
 ---------------------------------------------------------------------
 Rotational constants (GHZ):      0.9622075      0.5883603      0.3651434
 Standard basis: STO-3G (5D, 7F)
 There are    75 symmetry adapted cartesian basis functions of A   symmetry.
 There are    75 symmetry adapted basis functions of A   symmetry.
    75 basis functions,   225 primitive gaussians,    75 cartesian basis functions
    46 alpha electrons       46 beta electrons
       nuclear repulsion energy       695.5058895673 Hartrees.
 NAtoms=   19 NActive=   19 NUniq=   19 SFac= 1.00D+00 NAtFMM=   60 NAOKFM=F Big=F
 Integral buffers will be    131072 words long.
 Raffenetti 2 integral format.
 Two-electron integral symmetry is turned on.
 One-electron integrals computed using PRISM.
 NBasis=    75 RedAO= T EigKep=  1.75D-01  NBF=    75
 NBsUse=    75 1.00D-06 EigRej= -1.00D+00 NBFU=    75
 Initial guess from the checkpoint file:  "/tmp/bnp.472694.sequoia/Gau-2462.chk"
 B after Tr=     0.000000    0.000000    0.000000
         Rot=    0.999993   -0.000032    0.000007   -0.003657 Ang=  -0.42 deg.
 ExpMin= 1.69D-01 ExpMax= 9.91D+01 ExpMxC= 9.91D+01 IAcc=1 IRadAn=         1 AccDes= 0.00D+00
 Harris functional with IExCor=  402 and IRadAn=       1 diagonalized for initial guess.
 HarFok:  IExCor=  402 AccDes= 0.00D+00 IRadAn=         1 IDoV= 1 UseB2=F ITyADJ=14
 ICtDFT=  3500011 ScaDFX=  1.000000  1.000000  1.000000  1.000000
 FoFCou: FMM=F IPFlag=           0 FMFlag=      100000 FMFlg1=           0
         NFxFlg=           0 DoJE=T BraDBF=F KetDBF=T FulRan=T
         wScrn=  0.000000 ICntrl=     500 IOpCl=  0 I1Cent=   200000004 NGrid=           0
         NMat0=    1 NMatS0=      1 NMatT0=    0 NMatD0=    1 NMtDS0=    0 NMtDT0=    0
 Petite list used in FoFCou.
 Keep R1 ints in memory in canonical form, NReq=4993994.
 Requested convergence on RMS density matrix=1.00D-08 within 128 cycles.
 Requested convergence on MAX density matrix=1.00D-06.
 Requested convergence on             energy=1.00D-06.
 No special actions if energy rises.
 Integral accuracy reduced to 1.0D-05 until final iterations.
 Initial convergence to 1.0D-05 achieved.  Increase integral accuracy.
 SCF Done:  E(RB3LYP) =  -562.503653230     A.U. after   18 cycles
            NFock= 18  Conv=0.38D-08     -V/T= 2.0142
 Calling FoFJK, ICntrl=      2127 FMM=F ISym2X=0 I1Cent= 0 IOpClX= 0 NMat=1 NMatS=1 NMatT=0.
 ***** Axes restored to original set *****
 -------------------------------------------------------------------
 Center     Atomic                   Forces (Hartrees/Bohr)
 Number     Number              X              Y              Z
 -------------------------------------------------------------------
      1        7          -0.001082976   -0.000276188   -0.000479479
      2        6          -0.001491140   -0.000264213    0.000120663
      3        6           0.007082150    0.007965903   -0.000599357
      4        6          -0.006544557   -0.005168730    0.000816270
      5        6           0.005514420   -0.003632142   -0.000597344
      6        6          -0.006946488   -0.001049846    0.000553521
      7        6           0.006438303    0.011336882   -0.000157912
      8        6          -0.008050177   -0.006374718   -0.003561278
      9        6           0.010912728    0.005112799   -0.003137251
     10        6          -0.017295573   -0.019992571    0.009231251
     11        6           0.010270758    0.021517549   -0.004853044
     12        6           0.000943721   -0.016928341    0.001991911
     13        7           0.001000718    0.001982282   -0.000008360
     14        6          -0.001600568   -0.001288030   -0.000120911
     15        1           0.000246898    0.000559220    0.000752610
     16        1           0.001021767   -0.000212737   -0.000121450
     17        1          -0.001249451    0.004568289    0.001165759
     18        1           0.001177648   -0.000335834   -0.003392585
     19        1          -0.000348179    0.002480426    0.002396987
 -------------------------------------------------------------------
 Cartesian Forces:  Max     0.021517549 RMS     0.006559239

 GradGradGradGradGradGradGradGradGradGradGradGradGradGradGradGradGradGrad
 Berny optimization.
 Using GEDIIS/GDIIS optimizer.
 FormGI is forming the generalized inverse of G from B-inverse, IUseBI=4.
 Internal  Forces:  Max     0.014852426 RMS     0.003319726
 Search for a local minimum.
 Step number   2 out of a maximum of  102
 All quantities printed in internal units (Hartrees-Bohrs-Radians)
 Mixed Optimization -- RFO/linear search
 Update second derivatives using D2CorX and points    1    2
 DE= -2.84D-02 DEPred=-3.04D-02 R= 9.33D-01
 TightC=F SS=  1.41D+00  RLast= 3.66D-01 DXNew= 5.0454D-01 1.0969D+00
 Trust test= 9.33D-01 RLast= 3.66D-01 DXMaxT set to 5.05D-01
 ITU=  1  0
 Use linear search instead of GDIIS.
     Eigenvalues ---    0.01591   0.01598   0.01879   0.01881   0.01918
     Eigenvalues ---    0.01950   0.01989   0.02025   0.02066   0.02083
     Eigenvalues ---    0.02099   0.02123   0.02126   0.02150   0.02211
     Eigenvalues ---    0.02281   0.04864   0.04865   0.15802   0.15996
     Eigenvalues ---    0.15999   0.16000   0.16043   0.21326   0.22569
     Eigenvalues ---    0.23484   0.23525   0.24397   0.24982   0.24991
     Eigenvalues ---    0.24999   0.34748   0.34783   0.34921   0.34976
     Eigenvalues ---    0.35211   0.38791   0.39849   0.40356   0.40529
     Eigenvalues ---    0.40881   0.42918   0.43843   0.44313   0.45306
     Eigenvalues ---    0.45639   0.46153   0.46643   0.50541   1.27321
     Eigenvalues ---    1.32916
 RFO step:  Lambda=-5.62960542D-03 EMin= 1.59054099D-02
 Quartic linear search produced a step of  0.19061.
 Iteration  1 RMS(Cart)=  0.05326220 RMS(Int)=  0.00259833
 Iteration  2 RMS(Cart)=  0.00310488 RMS(Int)=  0.00099374
 Iteration  3 RMS(Cart)=  0.00000778 RMS(Int)=  0.00099373
 Iteration  4 RMS(Cart)=  0.00000001 RMS(Int)=  0.00099373
 Variable       Old X    -DE/DX   Delta X   Delta X   Delta X     New X
                                 (Linear)    (Quad)   (Total)
    R1        2.26853   0.00106   0.01411  -0.01188   0.00223   2.27076
    R2        2.75196   0.00257   0.00671   0.00123   0.00794   2.75990
    R3        2.66748  -0.00635   0.00228  -0.01836  -0.01599   2.65149
    R4        2.76252   0.00155   0.01477  -0.00928   0.00552   2.76804
    R5        2.69950   0.00252   0.01212  -0.00484   0.00733   2.70683
    R6        2.07406   0.00036   0.00250  -0.00117   0.00134   2.07540
    R7        2.67924  -0.00323   0.00790  -0.01571  -0.00785   2.67139
    R8        2.75444   0.00032   0.00847  -0.00701   0.00146   2.75590
    R9        2.70644  -0.00484   0.01066  -0.02277  -0.01220   2.69424
   R10        2.07398   0.00101   0.00263   0.00091   0.00353   2.07752
   R11        2.75908   0.00166   0.01497  -0.00978   0.00544   2.76451
   R12        2.70732   0.00325   0.01085  -0.00220   0.00850   2.71582
   R13        2.71152  -0.00337   0.00652  -0.01496  -0.00804   2.70348
   R14        2.67002   0.00564   0.00610   0.00902   0.01527   2.68529
   R15        2.08359   0.00121   0.00490  -0.00057   0.00433   2.08792
   R16        2.71294   0.01458   0.01756   0.01942   0.03671   2.74965
   R17        2.65498  -0.00762   0.00473  -0.02360  -0.01930   2.63568
   R18        2.08771   0.00109   0.00642  -0.00243   0.00398   2.09169
   R19        2.08097  -0.00022   0.00438  -0.00487  -0.00048   2.08048
   R20        2.26634   0.00222   0.01409  -0.01080   0.00329   2.26963
    A1        2.05772   0.00059   0.00030   0.00215   0.00242   2.06014
    A2        2.10867  -0.00184  -0.00199  -0.00689  -0.00891   2.09975
    A3        2.11677   0.00125   0.00169   0.00468   0.00636   2.12314
    A4        2.10406  -0.00061   0.00093  -0.00370  -0.00275   2.10131
    A5        2.09036   0.00082  -0.00090   0.00601   0.00509   2.09545
    A6        2.08877  -0.00022  -0.00003  -0.00230  -0.00234   2.08642
    A7        2.08710   0.00006  -0.00011  -0.00030  -0.00050   2.08660
    A8        2.10102  -0.00134  -0.00118  -0.00474  -0.00588   2.09514
    A9        2.09504   0.00128   0.00129   0.00501   0.00634   2.10137
   A10        2.11761   0.00076   0.00091   0.00144   0.00213   2.11973
   A11        2.08245  -0.00013   0.00021   0.00042   0.00075   2.08320
   A12        2.08313  -0.00063  -0.00113  -0.00186  -0.00287   2.08025
   A13        2.09202   0.00048  -0.00099   0.00392   0.00338   2.09540
   A14        2.12382   0.00319   0.00684   0.01093   0.01861   2.14242
   A15        2.06735  -0.00367  -0.00586  -0.01484  -0.02203   2.04532
   A16        2.04871  -0.00195  -0.00245  -0.00623  -0.00905   2.03967
   A17        2.17284  -0.00033   0.00028  -0.00088  -0.00098   2.17186
   A18        2.06082   0.00223   0.00202   0.00507   0.00607   2.06689
   A19        2.17189   0.00725   0.00980   0.02632   0.03501   2.20690
   A20        2.03596  -0.00841  -0.01630  -0.03678  -0.05295   1.98301
   A21        2.07456   0.00112   0.00636   0.00893   0.01507   2.08963
   A22        2.00607  -0.01485  -0.01726  -0.05466  -0.07362   1.93245
   A23        2.16126   0.00882   0.01359   0.02960   0.04003   2.20129
   A24        2.08518  -0.00356  -0.00145  -0.01434  -0.01481   2.07037
   A25        2.03650  -0.00529  -0.01219  -0.01613  -0.02720   2.00931
   A26        2.09529  -0.00007  -0.00299  -0.00221  -0.00753   2.08776
   A27        2.06983  -0.00261  -0.00633  -0.01010  -0.01544   2.05439
   A28        2.11791   0.00267   0.00929   0.01205   0.02248   2.14039
   A29        3.18478  -0.00074   0.00622  -0.05056  -0.04434   3.14044
   A30        3.13496   0.00022   0.00167   0.00273   0.00440   3.13936
   A31        3.16560  -0.00112   0.00460  -0.06894  -0.06434   3.10126
   A32        3.14269  -0.00005   0.00014  -0.00127  -0.00112   3.14157
    D1       -3.13584   0.00023   0.00112   0.00874   0.01015  -3.12569
    D2        0.00479   0.00021   0.00090   0.00852   0.00951   0.01429
    D3        0.01336   0.00051   0.00260   0.01854   0.02148   0.03483
    D4       -3.12920   0.00049   0.00238   0.01832   0.02083  -3.10837
    D5       -3.13683  -0.00002   0.00095  -0.00076  -0.00023  -3.13706
    D6       -0.03957  -0.00132  -0.00743  -0.05603  -0.06267  -0.10223
    D7       -0.00306  -0.00030  -0.00058  -0.01080  -0.01175  -0.01482
    D8        3.09420  -0.00159  -0.00896  -0.06607  -0.07420   3.02000
    D9       -0.01345  -0.00038  -0.00265  -0.01365  -0.01629  -0.02974
   D10        3.13646  -0.00028  -0.00111  -0.01020  -0.01155   3.12491
   D11        3.12910  -0.00037  -0.00243  -0.01345  -0.01565   3.11345
   D12       -0.00417  -0.00027  -0.00090  -0.00999  -0.01091  -0.01508
   D13        0.00332   0.00003   0.00069   0.00135   0.00170   0.00502
   D14       -3.13472   0.00000   0.00133  -0.00019   0.00080  -3.13392
   D15        3.13662  -0.00008  -0.00084  -0.00214  -0.00311   3.13351
   D16       -0.00142  -0.00011  -0.00020  -0.00367  -0.00401  -0.00543
   D17        0.00687   0.00018   0.00131   0.00611   0.00772   0.01459
   D18       -3.13410  -0.00013   0.00136  -0.00288  -0.00232  -3.13642
   D19       -3.13828   0.00021   0.00067   0.00765   0.00863  -3.12965
   D20        0.00394  -0.00010   0.00072  -0.00135  -0.00141   0.00252
   D21       -0.00692  -0.00005  -0.00136  -0.00148  -0.00284  -0.00976
   D22       -3.10711   0.00121   0.00648   0.05028   0.05586  -3.05125
   D23        3.13407   0.00025  -0.00140   0.00724   0.00667   3.14074
   D24        0.03388   0.00151   0.00644   0.05899   0.06537   0.09925
   D25       -3.12700   0.00055   0.00287   0.01933   0.02090  -3.10610
   D26       -0.00431   0.00001  -0.00079   0.00408   0.00220  -0.00210
   D27        0.01521   0.00024   0.00291   0.01045   0.01112   0.02633
   D28        3.13790  -0.00030  -0.00074  -0.00480  -0.00758   3.13032
   D29       -3.11791   0.00080   0.00448   0.02174   0.02707  -3.09084
   D30       -0.01907  -0.00040  -0.00370  -0.02066  -0.02278  -0.04184
   D31       -0.02093  -0.00060  -0.00396  -0.03415  -0.03663  -0.05756
   D32        3.07791  -0.00180  -0.01214  -0.07655  -0.08648   2.99144
   D33       -0.03958  -0.00143  -0.00758  -0.05690  -0.06232  -0.10190
   D34       -3.13755   0.00000   0.00077  -0.01260  -0.00823   3.13740
   D35        0.09298   0.00369   0.01775   0.13410   0.15182   0.24480
   D36       -3.07292   0.00238   0.01312   0.08965   0.10088  -2.97204
   D37       -0.08316  -0.00351  -0.01587  -0.11551  -0.13397  -0.21713
   D38        3.07787  -0.00289  -0.01211  -0.09958  -0.11388   2.96399
   D39        3.08212  -0.00224  -0.01136  -0.07220  -0.08470   2.99742
   D40       -0.04004  -0.00163  -0.00760  -0.05627  -0.06461  -0.10465
         Item               Value     Threshold  Converged?
 Maximum Force            0.014852     0.000450     NO 
 RMS     Force            0.003320     0.000300     NO 
 Maximum Displacement     0.235810     0.001800     NO 
 RMS     Displacement     0.053500     0.001200     NO 
 Predicted change in Energy=-3.275514D-03
 GradGradGradGradGradGradGradGradGradGradGradGradGradGradGradGradGradGrad

                          Input orientation:                          
 ---------------------------------------------------------------------
 Center     Atomic      Atomic             Coordinates (Angstroms)
 Number     Number       Type             X           Y           Z
 ---------------------------------------------------------------------
      1          7           0        1.092750    0.058340   -0.208694
      2          6           0        2.292534    0.052597   -0.142300
      3          6           0        3.752753    0.038481   -0.118944
      4          6           0        4.423691    1.270180   -0.080542
      5          6           0        5.855350    1.315797   -0.075968
      6          6           0        6.591409    0.108906   -0.073889
      7          6           0        5.940410   -1.159495   -0.082355
      8          6           0        4.479651   -1.233194   -0.111964
      9          6           0        3.860387   -2.518493   -0.006182
     10          6           0        4.524946   -3.772621    0.062724
     11          6           0        5.958115   -3.606910   -0.126335
     12          6           0        6.660618   -2.403133   -0.074247
     13          7           0        7.115032    3.657677   -0.041389
     14          6           0        6.544841    2.600732   -0.057002
     15          1           0        3.851937    2.207527   -0.055273
     16          1           0        7.690048    0.147640   -0.063024
     17          1           0        2.763042   -2.472591    0.114175
     18          1           0        6.583273   -4.510472   -0.260221
     19          1           0        7.760564   -2.357618   -0.062989
 ---------------------------------------------------------------------
                    Distance matrix (angstroms):
                    1          2          3          4          5
     1  N    0.000000
     2  C    1.201633   0.000000
     3  C    2.661591   1.460474   0.000000
     4  C    3.546850   2.455230   1.403109   0.000000
     5  C    4.927593   3.780705   2.460548   1.432393   0.000000
     6  C    5.500543   4.299788   2.839887   2.459187   1.413638
     7  C    4.999890   3.844446   2.494460   2.864221   2.476761
     8  C    3.626089   2.537255   1.464783   2.504197   2.896756
     9  C    3.786938   3.014498   2.561722   3.831043   4.322792
    10  C    5.150719   4.433734   3.892787   5.045852   5.261293
    11  C    6.092013   5.179646   4.260581   5.112979   4.924037
    12  C    6.089178   5.011527   3.797257   4.300826   3.805114
    13  N    7.017912   6.021899   4.940598   3.597914   2.659398
    14  C    6.017646   4.958063   3.790082   2.504037   1.458361
    15  H    3.500808   2.661397   2.172246   1.098254   2.193006
    16  H    6.599510   5.398933   3.939205   3.453909   2.175057
    17  H    3.049546   2.581421   2.709124   4.099269   4.893915
    18  H    7.143007   6.264659   5.359550   6.173493   5.874455
    19  H    7.093506   5.976184   4.669793   4.929092   4.138113
                    6          7          8          9         10
     6  C    0.000000
     7  C    1.425732   0.000000
     8  C    2.502439   1.462916   0.000000
     9  C    3.790290   2.485795   1.430620   0.000000
    10  C    4.399453   2.975401   2.545831   1.420994   0.000000
    11  C    3.769761   2.447874   2.796531   2.366337   1.455052
    12  C    2.512992   1.437150   2.475236   2.803433   2.540739
    13  N    3.587340   4.958484   5.556152   6.981334   7.869479
    14  C    2.492319   3.808582   4.355114   5.780601   6.686849
    15  H    3.450980   3.962234   3.497971   4.726283   6.019056
    16  H    1.099376   2.184081   3.495103   4.666670   5.040052
    17  H    4.621243   3.443619   2.129317   1.104879   2.190213
    18  H    4.623142   3.416717   3.897147   3.383286   2.210300
    19  H    2.729612   2.179181   3.468589   3.903907   3.533731
                   11         12         13         14         15
    11  C    0.000000
    12  C    1.394741   0.000000
    13  N    7.356622   6.077909   0.000000
    14  C    6.235694   5.005234   1.201038   0.000000
    15  H    6.184555   5.398818   3.570842   2.721460   0.000000
    16  H    4.135244   2.750689   3.556890   2.707249   4.355949
    17  H    3.398973   3.902747   7.519587   6.330080   4.808109
    18  H    1.106875   2.116943   8.188364   7.114211   7.254910
    19  H    2.193984   1.100944   6.049872   5.105218   6.009823
                   16         17         18         19
    16  H    0.000000
    17  H    5.583225   0.000000
    18  H    4.791852   4.345952   0.000000
    19  H    2.506250   5.001983   2.461645   0.000000
 Stoichiometry    C12H5N2(1-)
 Framework group  C1[X(C12H5N2)]
 Deg. of freedom    51
 Full point group                 C1      NOp   1
 Largest Abelian subgroup         C1      NOp   1
 Largest concise Abelian subgroup C1      NOp   1
                         Standard orientation:                         
 ---------------------------------------------------------------------
 Center     Atomic      Atomic             Coordinates (Angstroms)
 Number     Number       Type             X           Y           Z
 ---------------------------------------------------------------------
      1          7           0        0.694655    3.834495    0.068000
      2          6           0        0.347436    2.685152    0.019296
      3          6           0       -0.068383    1.285125    0.017502
      4          6           0       -1.442879    1.005401   -0.017556
      5          6           0       -1.907408   -0.349479   -0.001308
      6          6           0       -0.970275   -1.407742    0.013842
      7          6           0        0.433462   -1.158332    0.019456
      8          6           0        0.933369    0.216494    0.027961
      9          6           0        2.344011    0.428825   -0.080102
     10          6           0        3.347365   -0.576038   -0.132571
     11          6           0        2.767462   -1.894031    0.076671
     12          6           0        1.410383   -2.212344    0.028541
     13          7           0       -4.516119   -0.865437   -0.029770
     14          6           0       -3.338258   -0.630980   -0.016943
     15          1           0       -2.170672    1.826976   -0.056206
     16          1           0       -1.330307   -2.446481    0.018937
     17          1           0        2.622864    1.489157   -0.216832
     18          1           0        3.447180   -2.755015    0.224531
     19          1           0        1.043485   -3.250343    0.033226
 ---------------------------------------------------------------------
 Rotational constants (GHZ):      0.9726472      0.5851190      0.3656450
 Standard basis: STO-3G (5D, 7F)
 There are    75 symmetry adapted cartesian basis functions of A   symmetry.
 There are    75 symmetry adapted basis functions of A   symmetry.
    75 basis functions,   225 primitive gaussians,    75 cartesian basis functions
    46 alpha electrons       46 beta electrons
       nuclear repulsion energy       695.7198641520 Hartrees.
 NAtoms=   19 NActive=   19 NUniq=   19 SFac= 1.00D+00 NAtFMM=   60 NAOKFM=F Big=F
 Integral buffers will be    131072 words long.
 Raffenetti 2 integral format.
 Two-electron integral symmetry is turned on.
 One-electron integrals computed using PRISM.
 NBasis=    75 RedAO= T EigKep=  1.76D-01  NBF=    75
 NBsUse=    75 1.00D-06 EigRej= -1.00D+00 NBFU=    75
 Initial guess from the checkpoint file:  "/tmp/bnp.472694.sequoia/Gau-2462.chk"
 B after Tr=     0.000000    0.000000    0.000000
         Rot=    0.999972   -0.000027   -0.000017    0.007442 Ang=  -0.85 deg.
 ExpMin= 1.69D-01 ExpMax= 9.91D+01 ExpMxC= 9.91D+01 IAcc=1 IRadAn=         1 AccDes= 0.00D+00
 Harris functional with IExCor=  402 and IRadAn=       1 diagonalized for initial guess.
 HarFok:  IExCor=  402 AccDes= 0.00D+00 IRadAn=         1 IDoV= 1 UseB2=F ITyADJ=14
 ICtDFT=  3500011 ScaDFX=  1.000000  1.000000  1.000000  1.000000
 FoFCou: FMM=F IPFlag=           0 FMFlag=      100000 FMFlg1=           0
         NFxFlg=           0 DoJE=T BraDBF=F KetDBF=T FulRan=T
         wScrn=  0.000000 ICntrl=     500 IOpCl=  0 I1Cent=   200000004 NGrid=           0
         NMat0=    1 NMatS0=      1 NMatT0=    0 NMatD0=    1 NMtDS0=    0 NMtDT0=    0
 Petite list used in FoFCou.
 Keep R1 ints in memory in canonical form, NReq=4993994.
 Requested convergence on RMS density matrix=1.00D-08 within 128 cycles.
 Requested convergence on MAX density matrix=1.00D-06.
 Requested convergence on             energy=1.00D-06.
 No special actions if energy rises.
 Integral accuracy reduced to 1.0D-05 until final iterations.
 Initial convergence to 1.0D-05 achieved.  Increase integral accuracy.
 SCF Done:  E(RB3LYP) =  -562.506682893     A.U. after   15 cycles
            NFock= 15  Conv=0.84D-08     -V/T= 2.0141
 Calling FoFJK, ICntrl=      2127 FMM=F ISym2X=0 I1Cent= 0 IOpClX= 0 NMat=1 NMatS=1 NMatT=0.
 ***** Axes restored to original set *****
 -------------------------------------------------------------------
 Center     Atomic                   Forces (Hartrees/Bohr)
 Number     Number              X              Y              Z
 -------------------------------------------------------------------
      1        7           0.002352086    0.001566406    0.001877299
      2        6          -0.003230782   -0.003561100   -0.003928665
      3        6           0.000885275    0.001060287    0.001456575
      4        6           0.000290433    0.000546709   -0.000078577
      5        6           0.000819808    0.001452599    0.000044449
      6        6          -0.001104544   -0.002634319    0.000117955
      7        6           0.001224403    0.005047495    0.000129855
      8        6          -0.000936356   -0.000911701    0.000627962
      9        6          -0.003208971    0.003747025    0.001590888
     10        6          -0.003470048   -0.001701682    0.000192298
     11        6           0.008788677    0.000815214   -0.000797147
     12        6          -0.000518556   -0.002705975   -0.001457099
     13        7          -0.000818614   -0.001506071   -0.000036786
     14        6           0.000183665    0.001210931   -0.000054000
     15        1           0.000412022   -0.000148332    0.000042078
     16        1          -0.000327282    0.000022852    0.000156722
     17        1           0.000044566   -0.000853745   -0.000413743
     18        1          -0.000797831   -0.000851790    0.000170768
     19        1          -0.000587952   -0.000594802    0.000359168
 -------------------------------------------------------------------
 Cartesian Forces:  Max     0.008788677 RMS     0.002019745

 GradGradGradGradGradGradGradGradGradGradGradGradGradGradGradGradGradGrad
 Berny optimization.
 Using GEDIIS/GDIIS optimizer.
 FormGI is forming the generalized inverse of G from B-inverse, IUseBI=4.
 Internal  Forces:  Max     0.005376135 RMS     0.001128111
 Search for a local minimum.
 Step number   3 out of a maximum of  102
 All quantities printed in internal units (Hartrees-Bohrs-Radians)
 Mixed Optimization -- RFO/linear search
 Update second derivatives using D2CorX and points    2    3
 DE= -3.03D-03 DEPred=-3.28D-03 R= 9.25D-01
 TightC=F SS=  1.41D+00  RLast= 3.64D-01 DXNew= 8.4853D-01 1.0914D+00
 Trust test= 9.25D-01 RLast= 3.64D-01 DXMaxT set to 8.49D-01
 ITU=  1  1  0
 Use linear search instead of GDIIS.
     Eigenvalues ---    0.01467   0.01591   0.01881   0.01902   0.01937
     Eigenvalues ---    0.01955   0.02014   0.02030   0.02066   0.02083
     Eigenvalues ---    0.02099   0.02124   0.02131   0.02150   0.02234
     Eigenvalues ---    0.02809   0.04864   0.04864   0.15711   0.15982
     Eigenvalues ---    0.15997   0.16000   0.16284   0.21207   0.22383
     Eigenvalues ---    0.23477   0.23548   0.24273   0.24894   0.24996
     Eigenvalues ---    0.25100   0.34751   0.34781   0.34903   0.34988
     Eigenvalues ---    0.35184   0.38715   0.39369   0.40272   0.40507
     Eigenvalues ---    0.40675   0.41775   0.43362   0.44083   0.45254
     Eigenvalues ---    0.45614   0.46330   0.46474   0.50846   1.27313
     Eigenvalues ---    1.33085
 RFO step:  Lambda=-1.61719426D-03 EMin= 1.46703460D-02
 Quartic linear search produced a step of -0.07012.
 Iteration  1 RMS(Cart)=  0.04398071 RMS(Int)=  0.00559788
 Iteration  2 RMS(Cart)=  0.00652576 RMS(Int)=  0.00007128
 Iteration  3 RMS(Cart)=  0.00008484 RMS(Int)=  0.00005088
 Iteration  4 RMS(Cart)=  0.00000002 RMS(Int)=  0.00005088
 Variable       Old X    -DE/DX   Delta X   Delta X   Delta X     New X
                                 (Linear)    (Quad)   (Total)
    R1        2.27076  -0.00244  -0.00016  -0.00238  -0.00253   2.26823
    R2        2.75990   0.00090  -0.00056   0.00413   0.00358   2.76347
    R3        2.65149   0.00074   0.00112  -0.00408  -0.00295   2.64854
    R4        2.76804  -0.00064  -0.00039  -0.00098  -0.00138   2.76666
    R5        2.70683  -0.00012  -0.00051   0.00120   0.00071   2.70754
    R6        2.07540  -0.00034  -0.00009  -0.00069  -0.00079   2.07461
    R7        2.67139   0.00073   0.00055  -0.00202  -0.00145   2.66993
    R8        2.75590  -0.00056  -0.00010  -0.00162  -0.00173   2.75418
    R9        2.69424  -0.00192   0.00086  -0.00928  -0.00842   2.68582
   R10        2.07752  -0.00033  -0.00025   0.00009  -0.00016   2.07736
   R11        2.76451   0.00158  -0.00038   0.00334   0.00291   2.76742
   R12        2.71582   0.00334  -0.00060   0.00848   0.00787   2.72369
   R13        2.70348  -0.00019   0.00056  -0.00396  -0.00342   2.70006
   R14        2.68529   0.00268  -0.00107   0.01012   0.00906   2.69435
   R15        2.08792  -0.00014  -0.00030   0.00063   0.00033   2.08825
   R16        2.74965   0.00538  -0.00257   0.02153   0.01899   2.76863
   R17        2.63568  -0.00157   0.00135  -0.01004  -0.00866   2.62702
   R18        2.09169   0.00023  -0.00028   0.00131   0.00103   2.09272
   R19        2.08048  -0.00061   0.00003  -0.00221  -0.00217   2.07831
   R20        2.26963  -0.00171  -0.00023  -0.00147  -0.00170   2.26793
    A1        2.06014   0.00096  -0.00017   0.00441   0.00425   2.06440
    A2        2.09975  -0.00101   0.00063  -0.00647  -0.00583   2.09392
    A3        2.12314   0.00006  -0.00045   0.00219   0.00169   2.12482
    A4        2.10131   0.00004   0.00019  -0.00068  -0.00049   2.10082
    A5        2.09545   0.00026  -0.00036   0.00327   0.00292   2.09837
    A6        2.08642  -0.00030   0.00016  -0.00260  -0.00243   2.08399
    A7        2.08660  -0.00041   0.00004  -0.00168  -0.00164   2.08496
    A8        2.09514  -0.00040   0.00041  -0.00332  -0.00292   2.09222
    A9        2.10137   0.00081  -0.00044   0.00507   0.00462   2.10599
   A10        2.11973   0.00056  -0.00015   0.00243   0.00226   2.12199
   A11        2.08320  -0.00032  -0.00005  -0.00088  -0.00093   2.08227
   A12        2.08025  -0.00024   0.00020  -0.00154  -0.00133   2.07893
   A13        2.09540   0.00001  -0.00024   0.00125   0.00097   2.09637
   A14        2.14242   0.00000  -0.00130   0.00669   0.00543   2.14785
   A15        2.04532  -0.00001   0.00154  -0.00799  -0.00647   2.03885
   A16        2.03967  -0.00025   0.00063  -0.00351  -0.00287   2.03679
   A17        2.17186  -0.00051   0.00007  -0.00111  -0.00093   2.17093
   A18        2.06689   0.00079  -0.00043   0.00405   0.00362   2.07051
   A19        2.20690  -0.00118  -0.00245   0.00610   0.00361   2.21051
   A20        1.98301   0.00146   0.00371  -0.00818  -0.00447   1.97855
   A21        2.08963  -0.00024  -0.00106   0.00298   0.00194   2.09157
   A22        1.93245   0.00125   0.00516  -0.01806  -0.01287   1.91958
   A23        2.20129  -0.00166  -0.00281   0.00554   0.00282   2.20411
   A24        2.07037  -0.00036   0.00104  -0.00863  -0.00763   2.06274
   A25        2.00931   0.00203   0.00191   0.00200   0.00385   2.01316
   A26        2.08776   0.00081   0.00053   0.00057   0.00111   2.08887
   A27        2.05439   0.00019   0.00108  -0.00248  -0.00141   2.05298
   A28        2.14039  -0.00099  -0.00158   0.00216   0.00057   2.14095
   A29        3.14044   0.00320   0.00311   0.15260   0.15571   3.29615
   A30        3.13936   0.00003  -0.00031   0.00174   0.00144   3.14080
   A31        3.10126   0.00419   0.00451   0.19852   0.20303   3.30429
   A32        3.14157  -0.00003   0.00008  -0.00087  -0.00079   3.14078
    D1       -3.12569   0.00025  -0.00071   0.01591   0.01521  -3.11048
    D2        0.01429   0.00025  -0.00067   0.01476   0.01411   0.02840
    D3        0.03483   0.00001  -0.00151   0.00807   0.00656   0.04139
    D4       -3.10837   0.00001  -0.00146   0.00692   0.00546  -3.10290
    D5       -3.13706  -0.00059   0.00002  -0.02604  -0.02597   3.12016
    D6       -0.10223  -0.00030   0.00439  -0.03215  -0.02779  -0.13002
    D7       -0.01482  -0.00032   0.00082  -0.01791  -0.01707  -0.03189
    D8        3.02000  -0.00003   0.00520  -0.02402  -0.01889   3.00112
    D9       -0.02974   0.00018   0.00114   0.00211   0.00327  -0.02648
   D10        3.12491  -0.00002   0.00081  -0.00479  -0.00395   3.12096
   D11        3.11345   0.00018   0.00110   0.00324   0.00435   3.11780
   D12       -0.01508  -0.00001   0.00077  -0.00365  -0.00287  -0.01795
   D13        0.00502  -0.00004  -0.00012  -0.00159  -0.00171   0.00332
   D14       -3.13392  -0.00016  -0.00006  -0.00678  -0.00685  -3.14077
   D15        3.13351   0.00015   0.00022   0.00527   0.00551   3.13902
   D16       -0.00543   0.00003   0.00028   0.00007   0.00037  -0.00506
   D17        0.01459  -0.00029  -0.00054  -0.00893  -0.00950   0.00509
[...]
 ! D14   D(4,5,6,16)          -179.9652         -DE/DX =    0.0                 !
 ! D15   D(14,5,6,7)           179.711          -DE/DX =    0.0                 !
 ! D16   D(14,5,6,16)           -0.2696         -DE/DX =    0.0                 !
 ! D17   D(5,6,7,8)              0.0881         -DE/DX =    0.0                 !
 ! D18   D(5,6,7,12)           179.4122         -DE/DX =    0.0                 !
 ! D19   D(16,6,7,8)          -179.9313         -DE/DX =    0.0                 !
 ! D20   D(16,6,7,12)           -0.6072         -DE/DX =    0.0                 !
 ! D21   D(6,7,8,3)              0.6987         -DE/DX =    0.0                 !
 ! D22   D(6,7,8,9)           -174.3113         -DE/DX =    0.0                 !
 ! D23   D(12,7,8,3)          -178.6636         -DE/DX =    0.0                 !
 ! D24   D(12,7,8,9)             6.3264         -DE/DX =    0.0                 !
 ! D25   D(6,7,12,11)         -178.3998         -DE/DX =    0.0                 !
 ! D26   D(6,7,12,19)            0.2433         -DE/DX =    0.0                 !
 ! D27   D(8,7,12,11)            0.9439         -DE/DX =    0.0                 !
 ! D28   D(8,7,12,19)          179.587          -DE/DX =    0.0                 !
 ! D29   D(3,8,9,10)          -178.3607         -DE/DX =    0.0                 !
 ! D30   D(3,8,9,17)            -2.5188         -DE/DX =    0.0                 !
 ! D31   D(7,8,9,10)            -3.7644         -DE/DX =    0.0                 !
 ! D32   D(7,8,9,17)           172.0774         -DE/DX =    0.0                 !
 ! D33   D(8,9,10,11)           -5.6111         -DE/DX =    0.0                 !
 ! D34   D(17,9,10,11)         178.746          -DE/DX =    0.0                 !
 ! D35   D(9,10,11,12)          13.8084         -DE/DX =    0.0                 !
 ! D36   D(9,10,11,18)        -170.7139         -DE/DX =    0.0                 !
 ! D37   D(10,11,12,7)         -12.018          -DE/DX =    0.0                 !
 ! D38   D(10,11,12,19)        169.4057         -DE/DX =    0.0                 !
 ! D39   D(18,11,12,7)         172.4134         -DE/DX =    0.0                 !
 ! D40   D(18,11,12,19)         -6.1629         -DE/DX =    0.0                 !
 --------------------------------------------------------------------------------
 GradGradGradGradGradGradGradGradGradGradGradGradGradGradGradGradGradGrad

                          Input orientation:                          
 ---------------------------------------------------------------------
 Center     Atomic      Atomic             Coordinates (Angstroms)
 Number     Number       Type             X           Y           Z
 ---------------------------------------------------------------------
      1          7           0        1.093327    0.093974   -0.202834
      2          6           0        2.292336    0.045742   -0.166594
      3          6           0        3.753418    0.035944   -0.121043
      4          6           0        4.423296    1.268923   -0.087844
      5          6           0        5.854599    1.316451   -0.070312
      6          6           0        6.590009    0.107092   -0.065949
      7          6           0        5.942145   -1.158034   -0.078891
      8          6           0        4.479641   -1.234925   -0.099206
      9          6           0        3.859878   -2.517936    0.012551
     10          6           0        4.525902   -3.776564    0.070647
     11          6           0        5.968266   -3.609467   -0.133521
     12          6           0        6.664524   -2.406270   -0.087275
     13          7           0        7.103818    3.661570   -0.034955
     14          6           0        6.539060    2.602472   -0.050515
     15          1           0        3.852081    2.206503   -0.076557
     16          1           0        7.688265    0.146903   -0.051902
     17          1           0        2.762093   -2.479805    0.127719
     18          1           0        6.584701   -4.518571   -0.268736
     19          1           0        7.763990   -2.360652   -0.079203
 ---------------------------------------------------------------------
                    Distance matrix (angstroms):
                    1          2          3          4          5
     1  N    0.000000
     2  C    1.200526   0.000000
     3  C    2.661981   1.461825   0.000000
     4  C    3.533047   2.458325   1.403594   0.000000
     5  C    4.917492   3.783344   2.461145   1.432200   0.000000
     6  C    5.498402   4.299289   2.838017   2.458653   1.415413
     7  C    5.009383   3.844200   2.493569   2.863059   2.476048
     8  C    3.639208   2.535537   1.463893   2.504507   2.898424
     9  C    3.810810   3.010270   2.559586   3.829859   4.322997
    10  C    5.180582   4.433410   3.894700   5.049018   5.265368
    11  C    6.122525   5.184024   4.265527   5.117393   4.927634
    12  C    6.107602   5.013450   3.800011   4.304665   3.809844
    13  N    6.991561   6.020125   4.937384   3.593433   2.657326
    14  C    5.997647   4.958327   3.788382   2.501241   1.456959
    15  H    3.476989   2.666421   2.173256   1.097938   2.191417
    16  H    6.596878   5.398096   3.937018   3.452571   2.174974
    17  H    3.085188   2.585668   2.715437   4.105974   4.900446
    18  H    7.171827   6.266401   5.364846   6.180572   5.883867
    19  H    7.109024   5.978074   4.672270   4.932963   4.143300
                    6          7          8          9         10
     6  C    0.000000
     7  C    1.421422   0.000000
     8  C    2.501153   1.464665   0.000000
     9  C    3.788212   2.488680   1.429235   0.000000
    10  C    4.400225   2.980738   2.547728   1.425169   0.000000
    11  C    3.768812   2.452180   2.802790   2.378671   1.466294
    12  C    2.514557   1.442218   2.479094   2.808642   2.544867
    13  N    3.591555   4.957822   5.555726   6.979377   7.872905
    14  C    2.495947   3.807692   4.355363   5.779323   6.690260
    15  H    3.450200   3.960869   3.498252   4.725285   6.022689
    16  H    1.099068   2.180029   3.493845   4.664983   5.040749
    17  H    4.624120   3.449999   2.133352   1.104468   2.189946
    18  H    4.630109   3.426678   3.904145   3.392097   2.214589
    19  H    2.732795   2.182981   3.471975   3.908356   3.537297
                   11         12         13         14         15
    11  C    0.000000
    12  C    1.390898   0.000000
    13  N    7.359835   6.083945   0.000000
    14  C    6.238660   5.010447   1.200368   0.000000
    15  H    6.189264   5.402556   3.562688   2.716123   0.000000
    16  H    4.132236   2.750998   3.562969   2.711179   4.354178
    17  H    3.409388   3.909040   7.522867   6.334571   4.815733
    18  H    1.106682   2.121583   8.199929   7.124532   7.261594
    19  H    2.187947   1.100442   6.058460   5.112130   6.013479
                   16         17         18         19
    16  H    0.000000
    17  H    5.585609   0.000000
    18  H    4.799116   4.350411   0.000000
    19  H    2.508846   5.007593   2.466426   0.000000
 Stoichiometry    C12H5N2(1-)
 Framework group  C1[X(C12H5N2)]
 Deg. of freedom    51
 Full point group                 C1      NOp   1
 Largest Abelian subgroup         C1      NOp   1
 Largest concise Abelian subgroup C1      NOp   1
                         Standard orientation:                         
 ---------------------------------------------------------------------
 Center     Atomic      Atomic             Coordinates (Angstroms)
 Number     Number       Type             X           Y           Z
 ---------------------------------------------------------------------
      1          7           0        0.626074    3.849682    0.061339
      2          6           0        0.330474    2.686252    0.043611
      3          6           0       -0.076680    1.282465    0.020363
      4          6           0       -1.449452    0.991421   -0.009061
      5          6           0       -1.903080   -0.367035   -0.005045
      6          6           0       -0.953591   -1.416649    0.008094
      7          6           0        0.443732   -1.156192    0.017766
      8          6           0        0.934397    0.223839    0.016211
      9          6           0        2.340932    0.450262   -0.098278
     10          6           0        3.357463   -0.547765   -0.139664
     11          6           0        2.785930   -1.879170    0.085568
     12          6           0        1.434191   -2.204196    0.043656
     13          7           0       -4.507008   -0.896305   -0.033604
     14          6           0       -3.330859   -0.656720   -0.021124
     15          1           0       -2.185247    1.805948   -0.033932
     16          1           0       -1.304868   -2.458066    0.010563
     17          1           0        2.617453    1.511367   -0.230344
     18          1           0        3.481457   -2.726926    0.234890
     19          1           0        1.076999   -3.245020    0.052088
 ---------------------------------------------------------------------
 Rotational constants (GHZ):      0.9697038      0.5853155      0.3653600

 **********************************************************************

            Population analysis using the SCF density.

 **********************************************************************

 Orbital symmetries:
       Occupied  (A) (A) (A) (A) (A) (A) (A) (A) (A) (A) (A) (A)
                 (A) (A) (A) (A) (A) (A) (A) (A) (A) (A) (A) (A)
                 (A) (A) (A) (A) (A) (A) (A) (A) (A) (A) (A) (A)
                 (A) (A) (A) (A) (A) (A) (A) (A) (A) (A)
       Virtual   (A) (A) (A) (A) (A) (A) (A) (A) (A) (A) (A) (A)
                 (A) (A) (A) (A) (A) (A) (A) (A) (A) (A) (A) (A)
                 (A) (A) (A) (A) (A)
 The electronic state is 1-A.
 Alpha  occ. eigenvalues --  -13.99502 -13.98585  -9.90835  -9.90249  -9.90092
 Alpha  occ. eigenvalues --   -9.89265  -9.89143  -9.88535  -9.86796  -9.86690
 Alpha  occ. eigenvalues --   -9.83472  -9.81120  -9.79177  -9.67957  -0.73143
 Alpha  occ. eigenvalues --   -0.72072  -0.67895  -0.61505  -0.59563  -0.53604
 Alpha  occ. eigenvalues --   -0.51455  -0.45301  -0.42974  -0.40233  -0.35382
 Alpha  occ. eigenvalues --   -0.31655  -0.30047  -0.28942  -0.25512  -0.22798
 Alpha  occ. eigenvalues --   -0.21651  -0.20718  -0.19074  -0.17676  -0.17441
 Alpha  occ. eigenvalues --   -0.15963  -0.14971  -0.14688  -0.14045  -0.12964
 Alpha  occ. eigenvalues --   -0.10550  -0.09352  -0.07331  -0.02212   0.01294
 Alpha  occ. eigenvalues --    0.10884
 Alpha virt. eigenvalues --    0.16302   0.19267   0.24892   0.25982   0.26583
 Alpha virt. eigenvalues --    0.29145   0.33375   0.37669   0.41863   0.45142
 Alpha virt. eigenvalues --    0.45534   0.52020   0.53026   0.54197   0.57517
 Alpha virt. eigenvalues --    0.58323   0.61247   0.63960   0.66486   0.69670
 Alpha virt. eigenvalues --    0.70542   0.75763   0.78967   0.81985   0.83403
 Alpha virt. eigenvalues --    0.91979   0.93722   1.06076   1.07105
          Condensed to atoms (all electrons):
               1          2          3          4          5          6
     1  N    6.590058   0.659368  -0.010756  -0.000189  -0.000001   0.000000
     2  C    0.659368   4.930702   0.419847  -0.031921   0.000894   0.000012
     3  C   -0.010756   0.419847   4.787192   0.509237  -0.028661  -0.008919
     4  C   -0.000189  -0.031921   0.509237   4.831032   0.472555  -0.029597
     5  C   -0.000001   0.000894  -0.028661   0.472555   4.777778   0.492088
     6  C    0.000000   0.000012  -0.008919  -0.029597   0.492088   4.833948
     7  C   -0.000001   0.000759  -0.026548  -0.008363  -0.027316   0.486572
     8  C    0.000034  -0.026858   0.442763  -0.025756  -0.007788  -0.025058
     9  C   -0.000099  -0.003611  -0.025302   0.000584   0.000037   0.000735
    10  C    0.000000   0.000010   0.000628  -0.000005   0.000000   0.000005
    11  C    0.000000   0.000001   0.000039   0.000000  -0.000007   0.000749
    12  C    0.000000  -0.000005   0.000781   0.000029   0.000747  -0.028156
    13  N    0.000000   0.000000  -0.000001  -0.000088  -0.011154  -0.000099
    14  C    0.000000  -0.000006   0.000818  -0.028705   0.424700  -0.028558
    15  H    0.000062  -0.003820  -0.024309   0.387033  -0.024404   0.001233
    16  H    0.000000   0.000001   0.000028   0.001288  -0.025668   0.385329
    17  H   -0.000283   0.002252  -0.004155   0.000016  -0.000001  -0.000021
    18  H    0.000000   0.000000   0.000001   0.000000   0.000000  -0.000019
    19  H    0.000000   0.000000  -0.000015  -0.000001   0.000010  -0.003453
               7          8          9         10         11         12
     1  N   -0.000001   0.000034  -0.000099   0.000000   0.000000   0.000000
     2  C    0.000759  -0.026858  -0.003611   0.000010   0.000001  -0.000005
     3  C   -0.026548   0.442763  -0.025302   0.000628   0.000039   0.000781
     4  C   -0.008363  -0.025756   0.000584  -0.000005   0.000000   0.000029
     5  C   -0.027316  -0.007788   0.000037   0.000000  -0.000007   0.000747
     6  C    0.486572  -0.025058   0.000735   0.000005   0.000749  -0.028156
     7  C    4.806867   0.445039  -0.029802  -0.007013  -0.029914   0.463423
     8  C    0.445039   4.828023   0.470646  -0.018604  -0.012589  -0.029038
     9  C   -0.029802   0.470646   4.935189   0.457369  -0.030731  -0.011521
    10  C   -0.007013  -0.018604   0.457369   5.433505   0.410162  -0.018539
    11  C   -0.029914  -0.012589  -0.030731   0.410162   4.910821   0.514258
    12  C    0.463423  -0.029038  -0.011521  -0.018539   0.514258   4.877075
    13  N   -0.000001   0.000000   0.000000   0.000000   0.000000   0.000000
    14  C    0.000817   0.000010   0.000000   0.000000   0.000000  -0.000005
    15  H    0.000030   0.001156  -0.000014   0.000000   0.000000   0.000001
    16  H   -0.024533   0.001240  -0.000016   0.000000   0.000020  -0.003467
    17  H    0.001331  -0.035434   0.380691  -0.031330   0.002117   0.000011
    18  H    0.001515   0.000009   0.002027  -0.030941   0.378881  -0.034801
    19  H   -0.027531   0.001194   0.000067   0.001079  -0.023634   0.381396
              13         14         15         16         17         18
     1  N    0.000000   0.000000   0.000062   0.000000  -0.000283   0.000000
     2  C    0.000000  -0.000006  -0.003820   0.000001   0.002252   0.000000
     3  C   -0.000001   0.000818  -0.024309   0.000028  -0.004155   0.000001
     4  C   -0.000088  -0.028705   0.387033   0.001288   0.000016   0.000000
     5  C   -0.011154   0.424700  -0.024404  -0.025668  -0.000001   0.000000
     6  C   -0.000099  -0.028558   0.001233   0.385329  -0.000021  -0.000019
     7  C   -0.000001   0.000817   0.000030  -0.024533   0.001331   0.001515
     8  C    0.000000   0.000010   0.001156   0.001240  -0.035434   0.000009
     9  C    0.000000   0.000000  -0.000014  -0.000016   0.380691   0.002027
    10  C    0.000000   0.000000   0.000000   0.000000  -0.031330  -0.030941
    11  C    0.000000   0.000000   0.000000   0.000020   0.002117   0.378881
    12  C    0.000000  -0.000005   0.000001  -0.003467   0.000011  -0.034801
    13  N    6.594354   0.659266   0.000057   0.000059   0.000000   0.000000
    14  C    0.659266   4.934194  -0.003144  -0.003329   0.000000   0.000000
    15  H    0.000057  -0.003144   0.595265  -0.000033   0.000000   0.000000
    16  H    0.000059  -0.003329  -0.000033   0.602854   0.000001  -0.000002
    17  H    0.000000   0.000000   0.000000   0.000001   0.656938  -0.000026
    18  H    0.000000   0.000000   0.000000  -0.000002  -0.000026   0.663826
    19  H    0.000000   0.000000   0.000000   0.001055   0.000003  -0.003754
              19
     1  N    0.000000
     2  C    0.000000
     3  C   -0.000015
     4  C   -0.000001
     5  C    0.000010
     6  C   -0.003453
     7  C   -0.027531
     8  C    0.001194
     9  C    0.000067
    10  C    0.001079
    11  C   -0.023634
    12  C    0.381396
    13  N    0.000000
    14  C    0.000000
    15  H    0.000000
    16  H    0.001055
    17  H    0.000003
    18  H   -0.003754
    19  H    0.636873
 Mulliken charges:
               1
     1  N   -0.238194
     2  C    0.052375
     3  C   -0.032669
     4  C   -0.077151
     5  C   -0.043809
     6  C   -0.076792
     7  C   -0.025330
     8  C   -0.008989
     9  C   -0.146251
    10  C   -0.196327
    11  C   -0.120172
    12  C   -0.112190
    13  N   -0.242394
    14  C    0.043942
    15  H    0.070887
    16  H    0.065176
    17  H    0.027891
    18  H    0.023284
    19  H    0.036711
 Sum of Mulliken charges =  -1.00000
 Mulliken charges with hydrogens summed into heavy atoms:
               1
     1  N   -0.238194
     2  C    0.052375
     3  C   -0.032669
     4  C   -0.006263
     5  C   -0.043809
     6  C   -0.011616
     7  C   -0.025330
     8  C   -0.008989
     9  C   -0.118361
    10  C   -0.196327
    11  C   -0.096887
    12  C   -0.075479
    13  N   -0.242394
    14  C    0.043942
 Electronic spatial extent (au):  <R**2>=           2792.9800
 Charge=             -1.0000 electrons
 Dipole moment (field-independent basis, Debye):
    X=             -3.7010    Y=             -1.6146    Z=              0.2973  Tot=              4.0488
 Quadrupole moment (field-independent basis, Debye-Ang):
   XX=           -129.4736   YY=            -94.7981   ZZ=            -74.4045
   XY=             -4.5888   XZ=              1.3717   YZ=             -0.4320
 Traceless Quadrupole moment (field-independent basis, Debye-Ang):
   XX=            -29.9149   YY=              4.7606   ZZ=             25.1543
   XY=             -4.5888   XZ=              1.3717   YZ=             -0.4320
 Octapole moment (field-independent basis, Debye-Ang**2):
  XXX=             14.9635  YYY=            -80.6065  ZZZ=              0.1469  XYY=            -23.1605
  XXY=             44.0467  XXZ=              8.0477  XZZ=             -4.5179  YZZ=              3.3198
  YYZ=             -1.6281  XYZ=             -0.4273
 Hexadecapole moment (field-independent basis, Debye-Ang**3):
 XXXX=          -3276.2310 YYYY=          -1701.1934 ZZZZ=            -60.5687 XXXY=            -80.6696
 XXXZ=             24.8456 YYYX=            -47.7391 YYYZ=             -6.2977 ZZZX=              1.0078
 ZZZY=              0.9310 XXYY=           -622.1752 XXZZ=           -373.7126 YYZZ=           -235.0080
 XXYZ=             -4.1766 YYXZ=             -1.1749 ZZXY=              6.7072
 N-N= 6.953704390907D+02 E-N=-2.712405366394D+03  KE= 5.546584797786D+02
 1\1\GINC-N038\FOpt\RB3LYP\STO-3G\C12H5N2(1-)\R2532\15-Jun-2021\0\\#N B
 3LYP/STO-3G OPT\\1Naph\\-1,1\N,1.0933268788,0.0939738642,-0.2028344576
 \C,2.2923359718,0.0457418656,-0.166594141\C,3.7534183435,0.0359435907,
 -0.12104346\C,4.4232955293,1.2689228428,-0.0878438565\C,5.8545992997,1
 .3164505119,-0.0703122592\C,6.5900085375,0.1070924339,-0.0659486583\C,
 5.9421448848,-1.1580343495,-0.0788911139\C,4.4796408093,-1.2349245845,
 -0.0992055782\C,3.859878367,-2.5179361657,0.0125510082\C,4.5259024726,
 -3.7765636439,0.0706471776\C,5.9682661971,-3.6094668119,-0.1335213809\
 C,6.6645237547,-2.4062696353,-0.087274725\N,7.1038182374,3.6615698036,
 -0.0349554145\C,6.5390599972,2.6024718654,-0.050514554\H,3.8520814318,
 2.2065025756,-0.0765569901\H,7.6882651797,0.1469030826,-0.0519016713\H
 ,2.7620930159,-2.4798049825,0.1277189595\H,6.5847010663,-4.5185706048,
 -0.2687355352\H,7.7639900258,-2.3606516583,-0.0792033495\\Version=ES64
 L-G09RevD.01\State=1-A\HF=-562.507036\RMSD=3.696e-09\RMSF=2.329e-05\Di
 pole=1.0257395,1.2139642,-0.1077118\Quadrupole=-0.4166657,-18.2693703,
 18.6860361,-9.9194577,-0.2564637,1.1109548\PG=C01 [X(C12H5N2)]\\@


 The arm of the moral universe is long, but it bends toward justice.
 -- Martin Luther King, Jr.
 Job cpu time:       0 days  0 hours  5 minutes 23.3 seconds.
 File lengths (MBytes):  RWF=      5 Int=      0 D2E=      0 Chk=      2 Scr=      1
 Normal termination of Gaussian 09 at Tue Jun 15 11:19:31 2021.
