 Entering Gaussian System, Link 0=/usr/local/apps//g09/g09
 Input=40.com
 Output=40.out
 Initial command:
 /usr/local/apps//g09/l1.exe "/tmp/bnp.472683.sequoia/Gau-2420.inp" -scrdir="/tmp/bnp.472683.sequoia/"
 Entering Link 1 = /usr/local/apps//g09/l1.exe PID=      2431.
  
 Copyright (c) 1988,1990,1992,1993,1995,1998,2003,2009,2013,
            Gaussian, Inc.  All Rights Reserved.
  
 This is part of the Gaussian(R) 09 program.  It is based on
 the Gaussian(R) 03 system (copyright 2003, Gaussian, Inc.),
 the Gaussian(R) 98 system (copyright 1998, Gaussian, Inc.),
 the Gaussian(R) 94 system (copyright 1995, Gaussian, Inc.),
 the Gaussian 92(TM) system (copyright 1992, Gaussian, Inc.),
 the Gaussian 90(TM) system (copyright 1990, Gaussian, Inc.),
 the Gaussian 88(TM) system (copyright 1988, Gaussian, Inc.),
 the Gaussian 86(TM) system (copyright 1986, Carnegie Mellon
 University), and the Gaussian 82(TM) system (copyright 1983,
 Carnegie Mellon University). Gaussian is a federally registered
 trademark of Gaussian, Inc.
  
 This software contains proprietary and confidential information,
 including trade secrets, belonging to Gaussian, Inc.
  
 This software is provided under written license and may be
 used, copied, transmitted, or stored only in accord with that
 written license.
  
 The following legend is applicable only to US Government
 contracts under FAR:
  
                    RESTRICTED RIGHTS LEGEND
  
 Use, reproduction and disclosure by the US Government is
 subject to restrictions as set forth in subparagraphs (a)
 and (c) of the Commercial Computer Software - Restricted
 Rights clause in FAR 52.227-19.
  
 Gaussian, Inc.
 340 Quinnipiac St., Bldg. 40, Wallingford CT 06492
  
  
 ---------------------------------------------------------------
 Warning -- This program may not be used in any manner that
 competes with the business of Gaussian, Inc. or will provide
 assistance to any competitor of Gaussian, Inc.  The licensee
 of this program is prohibited from giving any competitor of
 Gaussian, Inc. access to this program.  By using this program,
 the user acknowledges that Gaussian, Inc. is engaged in the
 business of creating and licensing software in the field of
 computational chemistry and represents and warrants to the
 licensee that it is not a competitor of Gaussian, Inc. and that
 it will not use this program in any manner prohibited above.
 ---------------------------------------------------------------
  

 Cite this work as:
 Gaussian 09, Revision D.01,
 M. J. Frisch, G. W. Trucks, H. B. Schlegel, G. E. Scuseria, 
 M. A. Robb, J. R. Cheeseman, G. Scalmani, V. Barone, B. Mennucci, 
 G. A. Petersson, H. Nakatsuji, M. Caricato, X. Li, H. P. Hratchian, 
 A. F. Izmaylov, J. Bloino, G. Zheng, J. L. Sonnenberg, M. Hada, 
 M. Ehara, K. Toyota, R. Fukuda, J. Hasegawa, M. Ishida, T. Nakajima, 
 Y. Honda, O. Kitao, H. Nakai, T. Vreven, J. A. Montgomery, Jr., 
 J. E. Peralta, F. Ogliaro, M. Bearpark, J. J. Heyd, E. Brothers, 
 K. N. Kudin, V. N. Staroverov, T. Keith, R. Kobayashi, J. Normand, 
 K. Raghavachari, A. Rendell, J. C. Burant, S. S. Iyengar, J. Tomasi, 
 M. Cossi, N. Rega, J. M. Millam, M. Klene, J. E. Knox, J. B. Cross, 
 V. Bakken, C. Adamo, J. Jaramillo, R. Gomperts, R. E. Stratmann, 
 O. Yazyev, A. J. Austin, R. Cammi, C. Pomelli, J. W. Ochterski, 
 R. L. Martin, K. Morokuma, V. G. Zakrzewski, G. A. Voth, 
 P. Salvador, J. J. Dannenberg, S. Dapprich, A. D. Daniels, 
 O. Farkas, J. B. Foresman, J. V. Ortiz, J. Cioslowski, 
 and D. J. Fox, Gaussian, Inc., Wallingford CT, 2013.
 
 ******************************************
 Gaussian 09:  ES64L-G09RevD.01 24-Apr-2013
                15-Jun-2021 
 ******************************************
 -------------------
 #N B3LYP/STO-3G OPT
 -------------------
 1/14=-1,18=20,19=15,26=3,38=1/1,3;
 2/9=110,12=2,17=6,18=5,40=1/2;
 3/6=3,11=2,16=1,25=1,30=1,71=1,74=-5/1,2,3;
 4//1;
 5/5=2,38=5/2;
 6/7=2,8=2,9=2,10=2,28=1/1;
 7//1,2,3,16;
 1/14=-1,18=20,19=15,26=3/3(2);
 2/9=110/2;
 99//99;
 2/9=110/2;
 3/6=3,11=2,16=1,25=1,30=1,71=1,74=-5/1,2,3;
 4/5=5,16=3,69=1/1;
 5/5=2,38=5/2;
 7//1,2,3,16;
 1/14=-1,18=20,19=15,26=3/3(-5);
 2/9=110/2;
 6/7=2,8=2,9=2,10=2,19=2,28=1/1;
 99/9=1/99;
 -----
 1Naph
 -----
 Symbolic Z-matrix:
 Charge = -1 Multiplicity = 1
 N                     1.06418   0.04862   0.00891 
 C                     2.22463   0.02759   0.00919 
 C                     3.6623    0.01105   0.00955 
 C                     4.31926   1.24849   0.01004 
 C                     5.70543   1.30218   0.01036 
 C                     6.44177   0.11941   0.01011 
 C                     5.81777  -1.15165   0.00971 
 C                     4.39604  -1.20625   0.00939 
 C                     3.77664  -2.48008   0.00912 
 C                     4.51897  -3.65769   0.00906 
 C                     5.90335  -3.60413   0.00931 
 C                     6.55568  -2.36602   0.00955 
 N                     9.15399  -2.36173   0.00975 
 C                     7.99369  -2.36931   0.00969 
 H                     3.7511    2.17776   0.01024 
 H                     6.21774   2.26173   0.01082 
 H                     7.52837   0.20955   0.01037 
 H                     2.69193  -2.58164   0.00893 
 H                     6.4668   -4.53458   0.00932 
 

 GradGradGradGradGradGradGradGradGradGradGradGradGradGradGradGradGradGrad
 Berny optimization.
 Initialization pass.
                           ----------------------------
                           !    Initial Parameters    !
                           ! (Angstroms and Degrees)  !
 --------------------------                            --------------------------
 ! Name  Definition              Value          Derivative Info.                !
 --------------------------------------------------------------------------------
 ! R1    R(1,2)                  1.1606         estimate D2E/DX2                !
 ! R2    R(2,3)                  1.4378         estimate D2E/DX2                !
 ! R3    R(3,4)                  1.401          estimate D2E/DX2                !
 ! R4    R(3,8)                  1.4213         estimate D2E/DX2                !
 ! R5    R(4,5)                  1.3872         estimate D2E/DX2                !
 ! R6    R(4,15)                 1.0892         estimate D2E/DX2                !
 ! R7    R(5,6)                  1.3932         estimate D2E/DX2                !
 ! R8    R(5,16)                 1.0877         estimate D2E/DX2                !
 ! R9    R(6,7)                  1.416          estimate D2E/DX2                !
 ! R10   R(6,17)                 1.0903         estimate D2E/DX2                !
 ! R11   R(7,8)                  1.4228         estimate D2E/DX2                !
 ! R12   R(7,12)                 1.421          estimate D2E/DX2                !
 ! R13   R(8,9)                  1.4164         estimate D2E/DX2                !
 ! R14   R(9,10)                 1.3921         estimate D2E/DX2                !
 ! R15   R(9,18)                 1.0895         estimate D2E/DX2                !
 ! R16   R(10,11)                1.3854         estimate D2E/DX2                !
 ! R17   R(11,12)                1.3994         estimate D2E/DX2                !
 ! R18   R(11,19)                1.0878         estimate D2E/DX2                !
 ! R19   R(12,14)                1.438          estimate D2E/DX2                !
 ! R20   R(13,14)                1.1603         estimate D2E/DX2                !
 ! A1    A(2,3,4)              117.3048         estimate D2E/DX2                !
 ! A2    A(2,3,8)              121.739          estimate D2E/DX2                !
 ! A3    A(4,3,8)              120.9562         estimate D2E/DX2                !
 ! A4    A(3,4,5)              120.1821         estimate D2E/DX2                !
 ! A5    A(3,4,15)             120.5942         estimate D2E/DX2                !
 ! A6    A(5,4,15)             119.2237         estimate D2E/DX2                !
 ! A7    A(4,5,6)              119.6864         estimate D2E/DX2                !
 ! A8    A(4,5,16)             120.3162         estimate D2E/DX2                !
 ! A9    A(6,5,16)             119.9974         estimate D2E/DX2                !
 ! A10   A(5,6,7)              121.9477         estimate D2E/DX2                !
 ! A11   A(5,6,17)             117.1624         estimate D2E/DX2                !
 ! A12   A(7,6,17)             120.8899         estimate D2E/DX2                !
 ! A13   A(6,7,8)              118.3471         estimate D2E/DX2                !
 ! A14   A(6,7,12)             122.5674         estimate D2E/DX2                !
 ! A15   A(8,7,12)             119.0856         estimate D2E/DX2                !
 ! A16   A(3,8,7)              118.8806         estimate D2E/DX2                !
 ! A17   A(3,8,9)              122.9888         estimate D2E/DX2                !
 ! A18   A(7,8,9)              118.1306         estimate D2E/DX2                !
 ! A19   A(8,9,10)             121.8426         estimate D2E/DX2                !
 ! A20   A(8,9,18)             121.2803         estimate D2E/DX2                !
 ! A21   A(10,9,18)            116.8772         estimate D2E/DX2                !
 ! A22   A(9,10,11)            120.0105         estimate D2E/DX2                !
 ! A23   A(10,11,12)           119.9993         estimate D2E/DX2                !
 ! A24   A(10,11,19)           118.9821         estimate D2E/DX2                !
 ! A25   A(12,11,19)           121.0186         estimate D2E/DX2                !
 ! A26   A(7,12,11)            120.9315         estimate D2E/DX2                !
 ! A27   A(7,12,14)            121.416          estimate D2E/DX2                !
 ! A28   A(11,12,14)           117.6526         estimate D2E/DX2                !
 ! A29   L(1,2,3,18,-1)        180.3791         estimate D2E/DX2                !
 ! A30   L(12,14,13,16,-1)     179.4946         estimate D2E/DX2                !
 ! A31   L(1,2,3,18,-2)        180.0005         estimate D2E/DX2                !
 ! A32   L(12,14,13,16,-2)     180.0029         estimate D2E/DX2                !
 ! D1    D(2,3,4,5)           -179.9978         estimate D2E/DX2                !
 ! D2    D(2,3,4,15)             0.0062         estimate D2E/DX2                !
 ! D3    D(8,3,4,5)              0.0009         estimate D2E/DX2                !
 ! D4    D(8,3,4,15)          -179.9951         estimate D2E/DX2                !
 ! D5    D(2,3,8,7)            179.9974         estimate D2E/DX2                !
 ! D6    D(2,3,8,9)             -0.012          estimate D2E/DX2                !
 ! D7    D(4,3,8,7)             -0.0012         estimate D2E/DX2                !
 ! D8    D(4,3,8,9)            179.9893         estimate D2E/DX2                !
 ! D9    D(3,4,5,6)              0.0039         estimate D2E/DX2                !
 ! D10   D(3,4,5,16)          -179.9952         estimate D2E/DX2                !
 ! D11   D(15,4,5,6)           179.9999         estimate D2E/DX2                !
 ! D12   D(15,4,5,16)            0.0009         estimate D2E/DX2                !
 ! D13   D(4,5,6,7)             -0.0084         estimate D2E/DX2                !
 ! D14   D(4,5,6,17)           179.9996         estimate D2E/DX2                !
 ! D15   D(16,5,6,7)           179.9906         estimate D2E/DX2                !
 ! D16   D(16,5,6,17)           -0.0014         estimate D2E/DX2                !
 ! D17   D(5,6,7,8)              0.0079         estimate D2E/DX2                !
 ! D18   D(5,6,7,12)          -179.9953         estimate D2E/DX2                !
 ! D19   D(17,6,7,8)           179.9997         estimate D2E/DX2                !
 ! D20   D(17,6,7,12)           -0.0036         estimate D2E/DX2                !
 ! D21   D(6,7,8,3)             -0.003          estimate D2E/DX2                !
 ! D22   D(6,7,8,9)           -179.9941         estimate D2E/DX2                !
 ! D23   D(12,7,8,3)          -179.9999         estimate D2E/DX2                !
 ! D24   D(12,7,8,9)             0.0091         estimate D2E/DX2                !
 ! D25   D(6,7,12,11)          179.9925         estimate D2E/DX2                !
 ! D26   D(6,7,12,14)           -0.0046         estimate D2E/DX2                !
 ! D27   D(8,7,12,11)           -0.0107         estimate D2E/DX2                !
 ! D28   D(8,7,12,14)          179.9921         estimate D2E/DX2                !
 ! D29   D(3,8,9,10)          -179.9955         estimate D2E/DX2                !
 ! D30   D(3,8,9,18)             0.0057         estimate D2E/DX2                !
 ! D31   D(7,8,9,10)            -0.0049         estimate D2E/DX2                !
 ! D32   D(7,8,9,18)           179.9963         estimate D2E/DX2                !
 ! D33   D(8,9,10,11)            0.002          estimate D2E/DX2                !
 ! D34   D(18,9,10,11)        -179.9991         estimate D2E/DX2                !
 ! D35   D(9,10,11,12)          -0.0034         estimate D2E/DX2                !
 ! D36   D(9,10,11,19)         179.9963         estimate D2E/DX2                !
 ! D37   D(10,11,12,7)           0.0079         estimate D2E/DX2                !
 ! D38   D(10,11,12,14)       -179.9949         estimate D2E/DX2                !
 ! D39   D(19,11,12,7)        -179.9918         estimate D2E/DX2                !
 ! D40   D(19,11,12,14)          0.0054         estimate D2E/DX2                !
 --------------------------------------------------------------------------------
 Trust Radius=3.00D-01 FncErr=1.00D-07 GrdErr=1.00D-06
 Number of steps in this run=    102 maximum allowed number of steps=    114.
 GradGradGradGradGradGradGradGradGradGradGradGradGradGradGradGradGradGrad

                          Input orientation:                          
 ---------------------------------------------------------------------
 Center     Atomic      Atomic             Coordinates (Angstroms)
 Number     Number       Type             X           Y           Z
 ---------------------------------------------------------------------
      1          7           0        1.064180    0.048620    0.008910
      2          6           0        2.224630    0.027590    0.009190
      3          6           0        3.662300    0.011050    0.009550
      4          6           0        4.319260    1.248490    0.010040
      5          6           0        5.705430    1.302180    0.010360
      6          6           0        6.441770    0.119410    0.010110
      7          6           0        5.817770   -1.151650    0.009710
      8          6           0        4.396040   -1.206250    0.009390
      9          6           0        3.776640   -2.480080    0.009120
     10          6           0        4.518970   -3.657690    0.009060
     11          6           0        5.903350   -3.604130    0.009310
     12          6           0        6.555680   -2.366020    0.009550
     13          7           0        9.153990   -2.361730    0.009750
     14          6           0        7.993690   -2.369310    0.009690
     15          1           0        3.751100    2.177760    0.010240
     16          1           0        6.217740    2.261730    0.010820
     17          1           0        7.528370    0.209550    0.010370
     18          1           0        2.691930   -2.581640    0.008930
     19          1           0        6.466800   -4.534580    0.009320
 ---------------------------------------------------------------------
                    Distance matrix (angstroms):
                    1          2          3          4          5
     1  N    0.000000
     2  C    1.160641   0.000000
     3  C    2.598392   1.437765   0.000000
     4  C    3.469184   2.424474   1.401019   0.000000
     5  C    4.807558   3.706825   2.416898   1.387209   0.000000
     6  C    5.378056   4.218140   2.781582   2.404136   1.393249
     7  C    4.902782   3.781701   2.449066   2.829524   2.456400
     8  C    3.560336   2.497475   1.421335   2.455941   2.829616
     9  C    3.708337   2.949092   2.493753   3.767847   4.245671
    10  C    5.066785   4.341116   3.767431   4.910243   5.099804
    11  C    6.063015   5.169369   4.253449   5.104631   4.910301
    12  C    5.998921   4.948471   3.744611   4.250442   3.765450
    13  N    8.441257   7.329726   5.982369   6.033929   5.031581
    14  C    7.339243   6.247174   4.942373   5.156541   4.326196
    15  H    3.428232   2.636919   2.168529   1.089196   2.141506
    16  H    5.608658   4.575621   3.405266   2.151948   1.087749
    17  H    6.466193   5.306861   3.871163   3.373097   2.125312
    18  H    3.093192   2.650745   2.768332   4.161502   4.915816
    19  H    7.084774   6.229719   5.341158   6.168941   5.886209
                    6          7          8          9         10
     6  C    0.000000
     7  C    1.415970   0.000000
     8  C    2.437701   1.422778   0.000000
     9  C    3.722938   2.435352   1.416439   0.000000
    10  C    4.238354   2.822608   2.454520   1.392056   0.000000
    11  C    3.762266   2.453973   2.832280   2.405490   1.385416
    12  C    2.488039   1.420988   2.451349   2.781380   2.411763
    13  N    3.675894   3.548895   4.896246   5.378652   4.812787
    14  C    2.932948   2.493456   3.780978   4.218505   3.705888
    15  H    3.387700   3.918686   3.444920   4.657910   5.885754
    16  H    2.154002   3.436734   3.917330   5.333267   6.158357
    17  H    1.090332   2.186097   3.437438   4.616231   4.900208
    18  H    4.621360   3.437404   2.189906   1.089454   2.120368
    19  H    4.654057   3.444627   3.919927   3.384957   2.136113
                   11         12         13         14         15
    11  C    0.000000
    12  C    1.399447   0.000000
    13  N    3.479974   2.598314   0.000000
    14  C    2.427818   1.438014   1.160325   0.000000
    15  H    6.169476   5.339626   7.056783   6.218956   0.000000
    16  H    5.874279   4.640073   5.477038   4.959892   2.468069
    17  H    4.145461   2.753123   3.042059   2.620504   4.259298
    18  H    3.370268   3.869762   6.465801   5.306010   4.875831
    19  H    1.087756   2.170381   3.455759   2.649488   7.240893
                   16         17         18         19
    16  H    0.000000
    17  H    2.434994   0.000000
    18  H    5.990791   5.584075   0.000000
    19  H    6.800872   4.861451   4.250132   0.000000
 Stoichiometry    C12H5N2(1-)
 Framework group  C1[X(C12H5N2)]
 Deg. of freedom    51
 Full point group                 C1      NOp   1
 Largest Abelian subgroup         C1      NOp   1
 Largest concise Abelian subgroup C1      NOp   1
                         Standard orientation:                         
 ---------------------------------------------------------------------
 Center     Atomic      Atomic             Coordinates (Angstroms)
 Number     Number       Type             X           Y           Z
 ---------------------------------------------------------------------
      1          7           0       -4.138264   -0.861849   -0.000212
      2          6           0       -3.104196   -0.334792   -0.000129
      3          6           0       -1.827572    0.326571   -0.000015
      4          6           0       -1.829574    1.727588    0.000091
      5          6           0       -0.631423    2.426719    0.000158
      6          6           0        0.574562    1.729050    0.000038
      7          6           0        0.621461    0.313857    0.000023
      8          6           0       -0.607647   -0.402796   -0.000038
      9          6           0       -0.555386   -1.818271    0.000078
     10          6           0        0.653460   -2.508570    0.000145
     11          6           0        1.850092   -1.810395    0.000143
     12          6           0        1.843689   -0.410963    0.000000
     13          7           0        4.134867    0.814490   -0.000253
     14          6           0        3.114383    0.262253   -0.000109
     15          1           0       -2.767938    2.280600    0.000187
     16          1           0       -0.630431    3.514468    0.000320
     17          1           0        1.491183    2.319500    0.000089
     18          1           0       -1.464969   -2.417911    0.000098
     19          1           0        2.784853   -2.366662    0.000258
 ---------------------------------------------------------------------
 Rotational constants (GHZ):      1.4052207      0.5490569      0.3947986
 Standard basis: STO-3G (5D, 7F)
 There are    75 symmetry adapted cartesian basis functions of A   symmetry.
 There are    75 symmetry adapted basis functions of A   symmetry.
    75 basis functions,   225 primitive gaussians,    75 cartesian basis functions
    46 alpha electrons       46 beta electrons
       nuclear repulsion energy       715.2009111172 Hartrees.
 NAtoms=   19 NActive=   19 NUniq=   19 SFac= 1.00D+00 NAtFMM=   60 NAOKFM=F Big=F
 Integral buffers will be    131072 words long.
 Raffenetti 2 integral format.
 Two-electron integral symmetry is turned on.
 One-electron integrals computed using PRISM.
 NBasis=    75 RedAO= T EigKep=  1.55D-01  NBF=    75
 NBsUse=    75 1.00D-06 EigRej= -1.00D+00 NBFU=    75
 ExpMin= 1.69D-01 ExpMax= 9.91D+01 ExpMxC= 9.91D+01 IAcc=1 IRadAn=         1 AccDes= 0.00D+00
 Harris functional with IExCor=  402 and IRadAn=       1 diagonalized for initial guess.
 HarFok:  IExCor=  402 AccDes= 0.00D+00 IRadAn=         1 IDoV= 1 UseB2=F ITyADJ=14
 ICtDFT=  3500011 ScaDFX=  1.000000  1.000000  1.000000  1.000000
 FoFCou: FMM=F IPFlag=           0 FMFlag=      100000 FMFlg1=           0
         NFxFlg=           0 DoJE=T BraDBF=F KetDBF=T FulRan=T
         wScrn=  0.000000 ICntrl=     500 IOpCl=  0 I1Cent=   200000004 NGrid=           0
         NMat0=    1 NMatS0=      1 NMatT0=    0 NMatD0=    1 NMtDS0=    0 NMtDT0=    0
 Petite list used in FoFCou.
 Keep R1 ints in memory in canonical form, NReq=4993994.
 Requested convergence on RMS density matrix=1.00D-08 within 128 cycles.
 Requested convergence on MAX density matrix=1.00D-06.
 Requested convergence on             energy=1.00D-06.
 No special actions if energy rises.
 Integral accuracy reduced to 1.0D-05 until final iterations.
 EnCoef did     5 forward-backward iterations
 EnCoef did     1 forward-backward iterations
 Initial convergence to 1.0D-05 achieved.  Increase integral accuracy.
 SCF Done:  E(RB3LYP) =  -562.481268892     A.U. after   23 cycles
            NFock= 23  Conv=0.86D-08     -V/T= 2.0129

 **********************************************************************

            Population analysis using the SCF density.

 **********************************************************************

 Orbital symmetries:
       Occupied  (A) (A) (A) (A) (A) (A) (A) (A) (A) (A) (A) (A)
                 (A) (A) (A) (A) (A) (A) (A) (A) (A) (A) (A) (A)
                 (A) (A) (A) (A) (A) (A) (A) (A) (A) (A) (A) (A)
                 (A) (A) (A) (A) (A) (A) (A) (A) (A) (A)
       Virtual   (A) (A) (A) (A) (A) (A) (A) (A) (A) (A) (A) (A)
                 (A) (A) (A) (A) (A) (A) (A) (A) (A) (A) (A) (A)
                 (A) (A) (A) (A) (A)
 The electronic state is 1-A.
 Alpha  occ. eigenvalues --  -13.99274 -13.96405  -9.90403  -9.89947  -9.88787
 Alpha  occ. eigenvalues --   -9.88027  -9.87677  -9.87559  -9.87299  -9.87183
 Alpha  occ. eigenvalues --   -9.86779  -9.82163  -9.79352  -9.63719  -0.74331
 Alpha  occ. eigenvalues --   -0.72307  -0.69071  -0.62940  -0.59750  -0.55092
 Alpha  occ. eigenvalues --   -0.51876  -0.45886  -0.42558  -0.41479  -0.36626
 Alpha  occ. eigenvalues --   -0.31860  -0.30013  -0.28029  -0.26679  -0.24213
 Alpha  occ. eigenvalues --   -0.22208  -0.22132  -0.19656  -0.18435  -0.17497
 Alpha  occ. eigenvalues --   -0.15429  -0.15036  -0.14419  -0.13580  -0.12805
 Alpha  occ. eigenvalues --   -0.11062  -0.10940  -0.07757  -0.03054   0.01303
 Alpha  occ. eigenvalues --    0.15402
 Alpha virt. eigenvalues --    0.16094   0.22577   0.24433   0.27399   0.29751
 Alpha virt. eigenvalues --    0.30732   0.37112   0.39029   0.45387   0.47801
 Alpha virt. eigenvalues --    0.48559   0.52022   0.54078   0.57540   0.59132
 Alpha virt. eigenvalues --    0.61281   0.64199   0.64883   0.69381   0.72345
 Alpha virt. eigenvalues --    0.75010   0.77536   0.80718   0.85376   0.89508
 Alpha virt. eigenvalues --    0.97483   0.99061   1.14196   1.16691
          Condensed to atoms (all electrons):
               1          2          3          4          5          6
     1  N    6.571804   0.687495  -0.011142  -0.000237  -0.000001   0.000000
     2  C    0.687495   4.886341   0.427921  -0.034720   0.001083   0.000019
     3  C   -0.011142   0.427921   4.771048   0.506572  -0.031252  -0.012190
     4  C   -0.000237  -0.034720   0.506572   4.820632   0.496452  -0.031215
     5  C   -0.000001   0.001083  -0.031252   0.496452   4.827542   0.514560
     6  C    0.000000   0.000019  -0.012190  -0.031215   0.514560   4.821212
     7  C   -0.000002   0.000903  -0.028518  -0.009886  -0.028081   0.484796
     8  C   -0.000001  -0.028932   0.460671  -0.028369  -0.009614  -0.028502
     9  C   -0.000104  -0.004408  -0.028637   0.000766   0.000043   0.000957
    10  C    0.000000   0.000022   0.000953  -0.000011   0.000000   0.000020
    11  C    0.000000   0.000001   0.000034   0.000000  -0.000007   0.000742
    12  C    0.000000  -0.000006   0.000947   0.000026   0.000843  -0.029546
    13  N    0.000000   0.000000   0.000000   0.000000   0.000001  -0.000129
    14  C    0.000000   0.000000  -0.000004  -0.000001   0.000022  -0.005097
    15  H    0.000053  -0.004067  -0.024913   0.389536  -0.026839   0.001584
    16  H    0.000000  -0.000022   0.001484  -0.026414   0.392193  -0.025853
    17  H    0.000000   0.000001   0.000048   0.001615  -0.028263   0.388115
    18  H   -0.000357   0.001939  -0.003297   0.000004  -0.000001  -0.000022
    19  H    0.000000   0.000000   0.000002   0.000000   0.000000  -0.000020
               7          8          9         10         11         12
     1  N   -0.000002  -0.000001  -0.000104   0.000000   0.000000   0.000000
     2  C    0.000903  -0.028932  -0.004408   0.000022   0.000001  -0.000006
     3  C   -0.028518   0.460671  -0.028637   0.000953   0.000034   0.000947
     4  C   -0.009886  -0.028369   0.000766  -0.000011   0.000000   0.000026
     5  C   -0.028081  -0.009614   0.000043   0.000000  -0.000007   0.000843
     6  C    0.484796  -0.028502   0.000957   0.000020   0.000742  -0.029546
     7  C    4.785547   0.467743  -0.032902  -0.011849  -0.030673   0.473267
     8  C    0.467743   4.812066   0.463657  -0.025816  -0.011264  -0.029075
     9  C   -0.032902   0.463657   4.901553   0.487533  -0.028870  -0.013918
    10  C   -0.011849  -0.025816   0.487533   5.435589   0.459798  -0.028906
    11  C   -0.030673  -0.011264  -0.028870   0.459798   4.874564   0.482245
    12  C    0.473267  -0.029075  -0.013918  -0.028906   0.482245   4.813597
    13  N   -0.000023  -0.000002   0.000000  -0.000002  -0.000224  -0.011444
    14  C   -0.030791   0.000875   0.000048   0.001176  -0.031810   0.420875
    15  H    0.000031   0.001295  -0.000018   0.000000   0.000000   0.000001
    16  H    0.001372   0.000026   0.000001   0.000000   0.000000  -0.000017
    17  H   -0.024188   0.001382  -0.000020   0.000000   0.000022  -0.003681
    18  H    0.001252  -0.032542   0.386811  -0.038443   0.002248  -0.000027
    19  H    0.001156  -0.000051   0.002221  -0.037758   0.387415  -0.033787
              13         14         15         16         17         18
     1  N    0.000000   0.000000   0.000053   0.000000   0.000000  -0.000357
     2  C    0.000000   0.000000  -0.004067  -0.000022   0.000001   0.001939
     3  C    0.000000  -0.000004  -0.024913   0.001484   0.000048  -0.003297
     4  C    0.000000  -0.000001   0.389536  -0.026414   0.001615   0.000004
     5  C    0.000001   0.000022  -0.026839   0.392193  -0.028263  -0.000001
     6  C   -0.000129  -0.005097   0.001584  -0.025853   0.388115  -0.000022
     7  C   -0.000023  -0.030791   0.000031   0.001372  -0.024188   0.001252
     8  C   -0.000002   0.000875   0.001295   0.000026   0.001382  -0.032542
     9  C    0.000000   0.000048  -0.000018   0.000001  -0.000020   0.386811
    10  C   -0.000002   0.001176   0.000000   0.000000   0.000000  -0.038443
    11  C   -0.000224  -0.031810   0.000000   0.000000   0.000022   0.002248
    12  C   -0.011444   0.420875   0.000001  -0.000017  -0.003681  -0.000027
    13  N    6.603922   0.682173   0.000000   0.000000  -0.000133   0.000000
    14  C    0.682173   4.918226   0.000000   0.000000   0.001435   0.000002
    15  H    0.000000   0.000000   0.604053  -0.004019  -0.000041   0.000000
    16  H    0.000000   0.000000  -0.004019   0.608785  -0.004314   0.000000
    17  H   -0.000133   0.001435  -0.000041  -0.004314   0.597468   0.000000
    18  H    0.000000   0.000002   0.000000   0.000000   0.000000   0.646965
    19  H    0.000099  -0.003942   0.000000   0.000000  -0.000001  -0.000007
              19
     1  N    0.000000
     2  C    0.000000
     3  C    0.000002
     4  C    0.000000
     5  C    0.000000
     6  C   -0.000020
     7  C    0.001156
     8  C   -0.000051
     9  C    0.002221
    10  C   -0.037758
    11  C    0.387415
    12  C   -0.033787
    13  N    0.000099
    14  C   -0.003942
    15  H    0.000000
    16  H    0.000000
    17  H   -0.000001
    18  H   -0.000007
    19  H    0.644398
 Mulliken charges:
               1
     1  N   -0.247509
     2  C    0.066430
     3  C   -0.029725
     4  C   -0.084751
     5  C   -0.108679
     6  C   -0.079432
     7  C   -0.019154
     8  C   -0.013547
     9  C   -0.134712
    10  C   -0.242307
    11  C   -0.104220
    12  C   -0.041394
    13  N   -0.274238
    14  C    0.046814
    15  H    0.063343
    16  H    0.056779
    17  H    0.070555
    18  H    0.035473
    19  H    0.040275
 Sum of Mulliken charges =  -1.00000
 Mulliken charges with hydrogens summed into heavy atoms:
               1
     1  N   -0.247509
     2  C    0.066430
     3  C   -0.029725
     4  C   -0.021408
     5  C   -0.051900
     6  C   -0.008877
     7  C   -0.019154
     8  C   -0.013547
     9  C   -0.099239
    10  C   -0.242307
    11  C   -0.063945
    12  C   -0.041394
    13  N   -0.274238
    14  C    0.046814
 Electronic spatial extent (au):  <R**2>=           2596.3652
 Charge=             -1.0000 electrons
 Dipole moment (field-independent basis, Debye):
    X=             -1.6665    Y=              5.6625    Z=              0.0003  Tot=              5.9027
 Quadrupole moment (field-independent basis, Debye-Ang):
   XX=           -120.1619   YY=            -94.0253   ZZ=            -73.8326
   XY=             -7.6367   XZ=              0.0002   YZ=              0.0016
 Traceless Quadrupole moment (field-independent basis, Debye-Ang):
   XX=            -24.1553   YY=              1.9813   ZZ=             22.1740
   XY=             -7.6367   XZ=              0.0002   YZ=              0.0016
 Octapole moment (field-independent basis, Debye-Ang**2):
  XXX=            -13.1899  YYY=             66.0320  ZZZ=             -0.0015  XYY=            -11.4671
  XXY=              3.6699  XXZ=              0.0140  XZZ=              0.2096  YZZ=             -0.5624
  YYZ=             -0.0023  XYZ=              0.0037
 Hexadecapole moment (field-independent basis, Debye-Ang**3):
 XXXX=          -3212.0395 YYYY=          -1180.7397 ZZZZ=            -58.0010 XXXY=           -240.9914
 XXXZ=              0.0084 YYYX=             38.5049 YYYZ=              0.0179 ZZZX=             -0.0003
 ZZZY=              0.0001 XXYY=           -583.2275 XXZZ=           -376.9004 YYZZ=           -183.2911
 XXYZ=              0.0031 YYXZ=             -0.0031 ZZXY=              6.5780
 N-N= 7.152009111172D+02 E-N=-2.752467589125D+03  KE= 5.553162953119D+02
 Calling FoFJK, ICntrl=      2127 FMM=F ISym2X=0 I1Cent= 0 IOpClX= 0 NMat=1 NMatS=1 NMatT=0.
 ***** Axes restored to original set *****
 -------------------------------------------------------------------
 Center     Atomic                   Forces (Hartrees/Bohr)
 Number     Number              X              Y              Z
 -------------------------------------------------------------------
      1        7          -0.103397243    0.003925776   -0.000025073
      2        6           0.083039309   -0.007979610    0.000021178
      3        6           0.003287950    0.030285608    0.000003333
      4        6          -0.020807897    0.002621409    0.000001794
      5        6           0.023161965   -0.004152652    0.000000377
      6        6           0.005665783    0.014963166    0.000014901
      7        6           0.015552405    0.020528722   -0.000011625
      8        6          -0.025751070   -0.013638593    0.000009142
      9        6           0.023957579   -0.014160423   -0.000009909
     10        6          -0.062066117   -0.058454180   -0.000008503
     11        6           0.002087556    0.027977469   -0.000001016
     12        6           0.026139843   -0.025698381    0.000007692
     13        7           0.108422800   -0.004263136    0.000006163
     14        6          -0.087916822    0.016599304   -0.000000912
     15        1          -0.006224650    0.004936773   -0.000001612
     16        1           0.003209884    0.006229754   -0.000000759
     17        1           0.007758981   -0.005491888   -0.000001201
     18        1          -0.013034041    0.012958160   -0.000002806
     19        1           0.016913785   -0.007187278   -0.000001165
 -------------------------------------------------------------------
 Cartesian Forces:  Max     0.108422800 RMS     0.030258161

 GradGradGradGradGradGradGradGradGradGradGradGradGradGradGradGradGradGrad
 Berny optimization.
 FormGI is forming the generalized inverse of G from B-inverse, IUseBI=4.
 Internal  Forces:  Max     0.108394385 RMS     0.020262139
 Search for a local minimum.
 Step number   1 out of a maximum of  102
 All quantities printed in internal units (Hartrees-Bohrs-Radians)
 Mixed Optimization -- RFO/linear search
 Second derivative matrix not updated -- first step.
 ITU=  0
     Eigenvalues ---    0.01589   0.01589   0.01814   0.01839   0.01845
     Eigenvalues ---    0.01931   0.01948   0.01963   0.01970   0.01993
     Eigenvalues ---    0.02019   0.02148   0.02157   0.02170   0.02191
     Eigenvalues ---    0.02221   0.04862   0.04862   0.16000   0.16000
     Eigenvalues ---    0.16000   0.16000   0.16000   0.22092   0.23239
     Eigenvalues ---    0.23488   0.23519   0.24915   0.25000   0.25000
     Eigenvalues ---    0.25000   0.34774   0.34876   0.34906   0.35073
     Eigenvalues ---    0.35074   0.37956   0.39856   0.39859   0.39894
     Eigenvalues ---    0.40336   0.42031   0.42574   0.44662   0.44871
     Eigenvalues ---    0.45650   0.45998   0.47127   0.47436   1.27375
     Eigenvalues ---    1.27581
 RFO step:  Lambda=-5.63002442D-02 EMin= 1.58919472D-02
 Linear search not attempted -- first point.
 Maximum step size (   0.300) exceeded in Quadratic search.
    -- Step size scaled by   0.825
 Iteration  1 RMS(Cart)=  0.04396963 RMS(Int)=  0.00116703
 Iteration  2 RMS(Cart)=  0.00175557 RMS(Int)=  0.00018509
 Iteration  3 RMS(Cart)=  0.00000191 RMS(Int)=  0.00018509
 Iteration  4 RMS(Cart)=  0.00000000 RMS(Int)=  0.00018509
 Variable       Old X    -DE/DX   Delta X   Delta X   Delta X     New X
                                 (Linear)    (Quad)   (Total)
    R1        2.19329   0.10345   0.00000   0.06417   0.06417   2.25746
    R2        2.71698   0.02031   0.00000   0.03681   0.03681   2.75379
    R3        2.64754   0.00877   0.00000   0.01473   0.01479   2.66234
    R4        2.68593   0.03388   0.00000   0.05900   0.05905   2.74499
    R5        2.62145   0.03306   0.00000   0.05101   0.05102   2.67247
    R6        2.05828   0.00746   0.00000   0.01518   0.01518   2.07346
    R7        2.63286   0.00606   0.00000   0.00896   0.00890   2.64176
    R8        2.05555   0.00701   0.00000   0.01420   0.01420   2.06975
    R9        2.67579   0.01408   0.00000   0.02324   0.02318   2.69897
   R10        2.06043   0.00728   0.00000   0.01486   0.01486   2.07529
   R11        2.68866   0.03287   0.00000   0.05614   0.05582   2.74448
   R12        2.68528   0.02370   0.00000   0.04050   0.04013   2.72541
   R13        2.67668   0.02573   0.00000   0.04323   0.04330   2.71998
   R14        2.63060   0.02141   0.00000   0.03387   0.03423   2.66483
   R15        2.05877   0.01177   0.00000   0.02397   0.02397   2.08274
   R16        2.61806   0.05651   0.00000   0.08740   0.08770   2.70576
   R17        2.64457   0.02420   0.00000   0.03932   0.03927   2.68384
   R18        2.05556   0.01491   0.00000   0.03022   0.03022   2.08578
   R19        2.71745   0.02048   0.00000   0.03715   0.03715   2.75460
   R20        2.19270   0.10839   0.00000   0.06713   0.06713   2.25983
    A1        2.04736   0.00307   0.00000   0.00765   0.00764   2.05500
    A2        2.12475  -0.00412   0.00000  -0.01170  -0.01171   2.11303
    A3        2.11108   0.00105   0.00000   0.00405   0.00407   2.11515
    A4        2.09757   0.00070   0.00000   0.00226   0.00225   2.09982
    A5        2.10477  -0.00317   0.00000  -0.01189  -0.01188   2.09289
    A6        2.08085   0.00247   0.00000   0.00962   0.00963   2.09048
    A7        2.08892   0.00247   0.00000   0.00540   0.00526   2.09418
    A8        2.09991  -0.00135   0.00000  -0.00312  -0.00305   2.09686
    A9        2.09435  -0.00113   0.00000  -0.00228  -0.00221   2.09214
   A10        2.12839  -0.00074   0.00000  -0.00521  -0.00542   2.12297
   A11        2.04487   0.00667   0.00000   0.02662   0.02672   2.07159
   A12        2.10993  -0.00592   0.00000  -0.02141  -0.02131   2.08862
   A13        2.06555   0.00644   0.00000   0.01772   0.01795   2.08349
   A14        2.13920  -0.00013   0.00000   0.00253   0.00301   2.14221
   A15        2.07844  -0.00631   0.00000  -0.02025  -0.02096   2.05748
   A16        2.07486  -0.00992   0.00000  -0.02422  -0.02411   2.05075
   A17        2.14656   0.00526   0.00000   0.01619   0.01639   2.16295
   A18        2.06177   0.00466   0.00000   0.00803   0.00772   2.06949
   A19        2.12655   0.02076   0.00000   0.05911   0.05948   2.18603
   A20        2.11674  -0.02491   0.00000  -0.08497  -0.08515   2.03159
   A21        2.03989   0.00415   0.00000   0.02586   0.02567   2.06556
   A22        2.09458  -0.03953   0.00000  -0.10746  -0.10647   1.98811
   A23        2.09438   0.02778   0.00000   0.08249   0.08267   2.17706
   A24        2.07663  -0.00284   0.00000   0.00090   0.00080   2.07743
   A25        2.11217  -0.02494   0.00000  -0.08338  -0.08348   2.02870
   A26        2.11065  -0.00736   0.00000  -0.02193  -0.02245   2.08821
   A27        2.11911  -0.00771   0.00000  -0.01972  -0.01946   2.09965
   A28        2.05342   0.01507   0.00000   0.04165   0.04191   2.09533
   A29        3.14821   0.00449   0.00000   0.05129   0.05129   3.19950
   A30        3.13277   0.01089   0.00000   0.08563   0.08563   3.21840
   A31        3.14160   0.00000   0.00000  -0.00001  -0.00001   3.14159
   A32        3.14164   0.00000   0.00000  -0.00003  -0.00003   3.14161
    D1       -3.14155   0.00000   0.00000   0.00000   0.00000  -3.14155
    D2        0.00011   0.00000   0.00000  -0.00002  -0.00002   0.00009
    D3        0.00002   0.00000   0.00000   0.00000   0.00000   0.00002
    D4       -3.14151   0.00000   0.00000  -0.00002  -0.00002  -3.14153
    D5        3.14155   0.00000   0.00000  -0.00001  -0.00001   3.14154
    D6       -0.00021   0.00000   0.00000   0.00004   0.00004  -0.00017
    D7       -0.00002   0.00000   0.00000   0.00000   0.00000  -0.00003
    D8        3.14141   0.00000   0.00000   0.00004   0.00004   3.14145
    D9        0.00007   0.00000   0.00000  -0.00002  -0.00002   0.00005
   D10       -3.14151   0.00000   0.00000  -0.00002  -0.00002  -3.14153
   D11        3.14159   0.00000   0.00000   0.00000   0.00000  -3.14159
   D12        0.00002   0.00000   0.00000   0.00000   0.00000   0.00001
   D13       -0.00015   0.00000   0.00000   0.00004   0.00004  -0.00011
   D14        3.14158   0.00000   0.00000   0.00000   0.00000   3.14159
   D15        3.14143   0.00000   0.00000   0.00004   0.00004   3.14147
   D16       -0.00002   0.00000   0.00000   0.00001   0.00000  -0.00002
   D17        0.00014   0.00000   0.00000  -0.00004  -0.00004   0.00010
   D18       -3.14151   0.00000   0.00000  -0.00001  -0.00001  -3.14152
   D19        3.14159   0.00000   0.00000   0.00000   0.00000   3.14159
   D20       -0.00006   0.00000   0.00000   0.00003   0.00003  -0.00003
   D21       -0.00005   0.00000   0.00000   0.00002   0.00002  -0.00003
   D22       -3.14149   0.00000   0.00000  -0.00002  -0.00002  -3.14151
   D23       -3.14159   0.00000   0.00000   0.00000   0.00000   3.14159
   D24        0.00016   0.00000   0.00000  -0.00005  -0.00005   0.00011
   D25        3.14146   0.00000   0.00000   0.00002   0.00002   3.14148
   D26       -0.00008   0.00000   0.00000   0.00000   0.00000  -0.00008
   D27       -0.00019   0.00000   0.00000   0.00004   0.00004  -0.00014
   D28        3.14146   0.00000   0.00000   0.00003   0.00003   3.14148
   D29       -3.14151   0.00000   0.00000   0.00000   0.00000  -3.14151
   D30        0.00010   0.00000   0.00000  -0.00001  -0.00001   0.00009
   D31       -0.00009   0.00000   0.00000   0.00004   0.00004  -0.00004
   D32        3.14153   0.00000   0.00000   0.00003   0.00003   3.14156
   D33        0.00004   0.00000   0.00000  -0.00003  -0.00003   0.00000
   D34       -3.14158   0.00000   0.00000  -0.00003  -0.00002   3.14158
   D35       -0.00006   0.00000   0.00000   0.00003   0.00003  -0.00004
   D36        3.14153   0.00000   0.00000   0.00003   0.00002   3.14155
   D37        0.00014   0.00000   0.00000  -0.00003  -0.00003   0.00011
   D38       -3.14150   0.00000   0.00000  -0.00001  -0.00002  -3.14152
   D39       -3.14145   0.00000   0.00000  -0.00003  -0.00003  -3.14148
   D40        0.00009   0.00000   0.00000  -0.00001  -0.00001   0.00008
         Item               Value     Threshold  Converged?
 Maximum Force            0.108394     0.000450     NO 
 RMS     Force            0.020262     0.000300     NO 
 Maximum Displacement     0.183341     0.001800     NO 
 RMS     Displacement     0.043697     0.001200     NO 
 Predicted change in Energy=-2.981809D-02
 GradGradGradGradGradGradGradGradGradGradGradGradGradGradGradGradGradGrad

                          Input orientation:                          
 ---------------------------------------------------------------------
 Center     Atomic      Atomic             Coordinates (Angstroms)
 Number     Number       Type             X           Y           Z
 ---------------------------------------------------------------------
      1          7           0        0.991407    0.102386    0.008936
      2          6           0        2.183695    0.028136    0.009216
      3          6           0        3.640926    0.021893    0.009569
      4          6           0        4.302081    1.265969    0.010046
      5          6           0        5.715128    1.323281    0.010352
      6          6           0        6.462346    0.141775    0.010125
      7          6           0        5.835078   -1.141341    0.009717
      8          6           0        4.385201   -1.225526    0.009404
      9          6           0        3.771223   -2.527357    0.009099
     10          6           0        4.465617   -3.754710    0.009025
     11          6           0        5.890634   -3.615256    0.009288
     12          6           0        6.582356   -2.374866    0.009559
     13          7           0        9.233470   -2.424672    0.009804
     14          6           0        8.039844   -2.351797    0.009720
     15          1           0        3.719043    2.195475    0.010224
     16          1           0        6.226263    2.291963    0.010781
     17          1           0        7.558355    0.211054    0.010364
     18          1           0        2.669308   -2.549507    0.008900
     19          1           0        6.517666   -4.523601    0.009292
 ---------------------------------------------------------------------
                    Distance matrix (angstroms):
                    1          2          3          4          5
     1  N    0.000000
     2  C    1.194598   0.000000
     3  C    2.650742   1.457245   0.000000
     4  C    3.509201   2.453526   1.408847   0.000000
     5  C    4.878948   3.761439   2.448658   1.414209   0.000000
     6  C    5.471082   4.280161   2.823966   2.435274   1.397960
     7  C    5.000801   3.834094   2.483428   2.853983   2.467540
     8  C    3.644337   2.533436   1.452584   2.492881   2.874913
     9  C    3.826608   3.008453   2.552578   3.830291   4.313489
    10  C    5.191082   4.417815   3.865597   5.023341   5.229462
    11  C    6.150065   5.197664   4.276686   5.133211   4.941655
    12  C    6.115186   5.012249   3.794267   4.295967   3.798471
    13  N    8.620768   7.464289   6.104280   6.159499   5.140612
    14  C    7.463477   6.321279   4.998488   5.201836   4.348621
    15  H    3.438171   2.656060   2.174985   1.097230   2.178319
    16  H    5.674326   4.633279   3.440521   2.180629   1.095264
    17  H    6.567847   5.377772   3.921993   3.422888   2.152797
    18  H    3.138135   2.622988   2.748843   4.150157   4.927018
    19  H    7.206893   6.285032   5.379326   6.199027   5.901704
                    6          7          8          9         10
     6  C    0.000000
     7  C    1.428234   0.000000
     8  C    2.486774   1.452319   0.000000
     9  C    3.790305   2.486069   1.439352   0.000000
    10  C    4.378301   2.950444   2.530462   1.410169   0.000000
    11  C    3.800281   2.474539   2.824383   2.382316   1.431825
    12  C    2.519501   1.442224   2.479611   2.815266   2.526767
    13  N    3.777007   3.632632   4.994363   5.463213   4.949891
    14  C    2.950660   2.515193   3.824251   4.272230   3.839696
    15  H    3.426864   3.951195   3.485257   4.723120   5.996838
    16  H    2.163110   3.455518   3.970169   5.408611   6.297787
    17  H    1.098196   2.190584   3.483198   4.673464   5.029146
    18  H    4.650821   3.464827   2.167306   1.102137   2.163155
    19  H    4.665704   3.450451   3.927430   3.395282   2.191369
                   11         12         13         14         15
    11  C    0.000000
    12  C    1.420227   0.000000
    13  N    3.548526   2.651582   0.000000
    14  C    2.493076   1.457670   1.195849   0.000000
    15  H    6.203257   5.393197   7.194071   6.272718   0.000000
    16  H    5.916746   4.680395   5.593741   4.985336   2.509076
    17  H    4.173960   2.763975   3.122990   2.607688   4.321832
    18  H    3.393047   3.916943   6.565349   5.374174   4.859711
    19  H    1.103748   2.149709   3.432360   2.652124   7.278618
                   16         17         18         19
    16  H    0.000000
    17  H    2.470758   0.000000
    18  H    6.007642   5.614577   0.000000
    19  H    6.821791   4.847680   4.325149   0.000000
 Stoichiometry    C12H5N2(1-)
 Framework group  C1[X(C12H5N2)]
 Deg. of freedom    51
 Full point group                 C1      NOp   1
 Largest Abelian subgroup         C1      NOp   1
 Largest concise Abelian subgroup C1      NOp   1
                         Standard orientation:                         
 ---------------------------------------------------------------------
 Center     Atomic      Atomic             Coordinates (Angstroms)
 Number     Number       Type             X           Y           Z
 ---------------------------------------------------------------------
      1          7           0       -4.230561   -0.833241   -0.000192
      2          6           0       -3.142211   -0.340740   -0.000104
      3          6           0       -1.851572    0.335879   -0.000004
      4          6           0       -1.849683    1.744725    0.000085
      5          6           0       -0.627839    2.456823    0.000132
      6          6           0        0.585526    1.762533    0.000033
      7          6           0        0.631856    0.335050    0.000015
      8          6           0       -0.609954   -0.418035   -0.000025
      9          6           0       -0.543119   -1.855834    0.000061
     10          6           0        0.645027   -2.615364    0.000134
     11          6           0        1.838999   -1.825077    0.000119
     12          6           0        1.869624   -0.405180   -0.000003
     13          7           0        4.235658    0.791804   -0.000209
     14          6           0        3.146768    0.297462   -0.000101
     15          1           0       -2.800003    2.293183    0.000162
     16          1           0       -0.629606    3.552086    0.000259
     17          1           0        1.521609    2.336798    0.000066
     18          1           0       -1.506484   -2.391217    0.000059
     19          1           0        2.818290   -2.334242    0.000212
 ---------------------------------------------------------------------
 Rotational constants (GHZ):      1.3587643      0.5311118      0.3818535
 Standard basis: STO-3G (5D, 7F)
 There are    75 symmetry adapted cartesian basis functions of A   symmetry.
 There are    75 symmetry adapted basis functions of A   symmetry.
    75 basis functions,   225 primitive gaussians,    75 cartesian basis functions
    46 alpha electrons       46 beta electrons
       nuclear repulsion energy       703.7758674086 Hartrees.
 NAtoms=   19 NActive=   19 NUniq=   19 SFac= 1.00D+00 NAtFMM=   60 NAOKFM=F Big=F
 Integral buffers will be    131072 words long.
 Raffenetti 2 integral format.
 Two-electron integral symmetry is turned on.
 One-electron integrals computed using PRISM.
 NBasis=    75 RedAO= T EigKep=  1.73D-01  NBF=    75
 NBsUse=    75 1.00D-06 EigRej= -1.00D+00 NBFU=    75
 Initial guess from the checkpoint file:  "/tmp/bnp.472683.sequoia/Gau-2431.chk"
 B after Tr=     0.000000    0.000000    0.000000
         Rot=    0.999998    0.000000    0.000000    0.001852 Ang=  -0.21 deg.
 ExpMin= 1.69D-01 ExpMax= 9.91D+01 ExpMxC= 9.91D+01 IAcc=1 IRadAn=         1 AccDes= 0.00D+00
 Harris functional with IExCor=  402 and IRadAn=       1 diagonalized for initial guess.
 HarFok:  IExCor=  402 AccDes= 0.00D+00 IRadAn=         1 IDoV= 1 UseB2=F ITyADJ=14
 ICtDFT=  3500011 ScaDFX=  1.000000  1.000000  1.000000  1.000000
 FoFCou: FMM=F IPFlag=           0 FMFlag=      100000 FMFlg1=           0
         NFxFlg=           0 DoJE=T BraDBF=F KetDBF=T FulRan=T
         wScrn=  0.000000 ICntrl=     500 IOpCl=  0 I1Cent=   200000004 NGrid=           0
         NMat0=    1 NMatS0=      1 NMatT0=    0 NMatD0=    1 NMtDS0=    0 NMtDT0=    0
 Petite list used in FoFCou.
 Keep R1 ints in memory in canonical form, NReq=4993994.
 Requested convergence on RMS density matrix=1.00D-08 within 128 cycles.
 Requested convergence on MAX density matrix=1.00D-06.
 Requested convergence on             energy=1.00D-06.
 No special actions if energy rises.
 Integral accuracy reduced to 1.0D-05 until final iterations.
 Initial convergence to 1.0D-05 achieved.  Increase integral accuracy.
 SCF Done:  E(RB3LYP) =  -562.509325837     A.U. after   25 cycles
            NFock= 25  Conv=0.17D-08     -V/T= 2.0139
 Calling FoFJK, ICntrl=      2127 FMM=F ISym2X=0 I1Cent= 0 IOpClX= 0 NMat=1 NMatS=1 NMatT=0.
 ***** Axes restored to original set *****
 -------------------------------------------------------------------
 Center     Atomic                   Forces (Hartrees/Bohr)
 Number     Number              X              Y              Z
 -------------------------------------------------------------------
      1        7          -0.013371418    0.000387575   -0.000002371
      2        6           0.009009939   -0.001287023    0.000000513
      3        6           0.004912026    0.008692731   -0.000000745
      4        6          -0.004748953   -0.001955174    0.000004674
      5        6           0.005876688   -0.004323402   -0.000003850
      6        6          -0.001538563    0.007125653    0.000009915
      7        6           0.001137985    0.009454582   -0.000012305
      8        6          -0.007780988   -0.006605176   -0.000002225
      9        6           0.012400586    0.003171191   -0.000012526
     10        6          -0.022028515   -0.025301057    0.000014776
     11        6           0.007544514    0.018957798   -0.000006603
     12        6           0.005044362   -0.014825772    0.000013867
     13        7           0.013815293   -0.000814541   -0.000000765
     14        6          -0.011443005    0.002950343    0.000008131
     15        1          -0.001144489    0.000407118    0.000000343
     16        1          -0.000276721    0.001583487   -0.000002378
     17        1           0.001157311   -0.002930964   -0.000001564
     18        1          -0.002568637    0.005652570    0.000005651
     19        1           0.004002585   -0.000339940   -0.000012539
 -------------------------------------------------------------------
 Cartesian Forces:  Max     0.025301057 RMS     0.007302630

 GradGradGradGradGradGradGradGradGradGradGradGradGradGradGradGradGradGrad
 Berny optimization.
 Using GEDIIS/GDIIS optimizer.
 FormGI is forming the generalized inverse of G from B-inverse, IUseBI=4.
 Internal  Forces:  Max     0.019086212 RMS     0.004367312
 Search for a local minimum.
 Step number   2 out of a maximum of  102
 All quantities printed in internal units (Hartrees-Bohrs-Radians)
 Mixed Optimization -- RFO/linear search
 Update second derivatives using D2CorX and points    1    2
 DE= -2.81D-02 DEPred=-2.98D-02 R= 9.41D-01
 TightC=F SS=  1.41D+00  RLast= 3.00D-01 DXNew= 5.0454D-01 8.9995D-01
 Trust test= 9.41D-01 RLast= 3.00D-01 DXMaxT set to 5.05D-01
 ITU=  1  0
 Use linear search instead of GDIIS.
     Eigenvalues ---    0.01589   0.01608   0.01815   0.01840   0.01846
     Eigenvalues ---    0.01933   0.01952   0.01964   0.01980   0.01994
     Eigenvalues ---    0.02024   0.02151   0.02158   0.02170   0.02186
     Eigenvalues ---    0.02221   0.04862   0.05005   0.15841   0.16000
     Eigenvalues ---    0.16000   0.16000   0.16087   0.21838   0.22094
     Eigenvalues ---    0.23478   0.23533   0.24808   0.24955   0.25000
     Eigenvalues ---    0.25117   0.34785   0.34881   0.34928   0.35074
     Eigenvalues ---    0.35148   0.38295   0.39857   0.39933   0.40107
     Eigenvalues ---    0.40477   0.42038   0.42600   0.44571   0.44696
     Eigenvalues ---    0.45369   0.46826   0.47103   0.48996   1.27470
     Eigenvalues ---    1.33540
 RFO step:  Lambda=-3.06946838D-03 EMin= 1.58919472D-02
 Quartic linear search produced a step of  0.33084.
 Iteration  1 RMS(Cart)=  0.03265533 RMS(Int)=  0.00133070
 Iteration  2 RMS(Cart)=  0.00160163 RMS(Int)=  0.00019758
 Iteration  3 RMS(Cart)=  0.00000184 RMS(Int)=  0.00019758
 Iteration  4 RMS(Cart)=  0.00000000 RMS(Int)=  0.00019758
 Variable       Old X    -DE/DX   Delta X   Delta X   Delta X     New X
                                 (Linear)    (Quad)   (Total)
    R1        2.25746   0.01337   0.02123  -0.00820   0.01303   2.27049
    R2        2.75379   0.00436   0.01218   0.00124   0.01342   2.76721
    R3        2.66234  -0.00205   0.00489  -0.01095  -0.00601   2.65632
    R4        2.74499   0.00511   0.01954  -0.00505   0.01450   2.75948
    R5        2.67247   0.00515   0.01688  -0.00365   0.01327   2.68573
    R6        2.07346   0.00095   0.00502  -0.00188   0.00315   2.07661
    R7        2.64176  -0.00221   0.00295  -0.00947  -0.00653   2.63523
    R8        2.06975   0.00127   0.00470  -0.00035   0.00435   2.07410
    R9        2.69897   0.00168   0.00767  -0.00341   0.00421   2.70318
   R10        2.07529   0.00097   0.00492  -0.00169   0.00323   2.07852
   R11        2.74448   0.00248   0.01847  -0.01339   0.00472   2.74920
   R12        2.72541   0.00646   0.01328   0.00529   0.01818   2.74359
   R13        2.71998   0.00084   0.01432  -0.01327   0.00114   2.72112
   R14        2.66483   0.00881   0.01132   0.01313   0.02483   2.68967
   R15        2.08274   0.00245   0.00793   0.00062   0.00855   2.09129
   R16        2.70576   0.01909   0.02901   0.02219   0.05150   2.75726
   R17        2.68384  -0.00193   0.01299  -0.01914  -0.00620   2.67764
   R18        2.08578   0.00255   0.01000  -0.00130   0.00870   2.09448
   R19        2.75460   0.00241   0.01229  -0.00533   0.00696   2.76156
   R20        2.25983   0.01384   0.02221  -0.00875   0.01346   2.27328
    A1        2.05500   0.00112   0.00253   0.00318   0.00573   2.06072
    A2        2.11303  -0.00243  -0.00387  -0.00837  -0.01222   2.10081
    A3        2.11515   0.00131   0.00135   0.00519   0.00649   2.12165
    A4        2.09982   0.00007   0.00074  -0.00021   0.00052   2.10034
    A5        2.09289  -0.00082  -0.00393  -0.00213  -0.00606   2.08683
    A6        2.09048   0.00075   0.00319   0.00234   0.00553   2.09601
    A7        2.09418  -0.00006   0.00174  -0.00277  -0.00111   2.09307
    A8        2.09686  -0.00099  -0.00101  -0.00678  -0.00775   2.08911
    A9        2.09214   0.00105  -0.00073   0.00955   0.00886   2.10100
   A10        2.12297  -0.00025  -0.00179  -0.00093  -0.00289   2.12008
   A11        2.07159   0.00323   0.00884   0.01654   0.02546   2.09706
   A12        2.08862  -0.00298  -0.00705  -0.01561  -0.02257   2.06605
   A13        2.08349   0.00219   0.00594   0.00568   0.01186   2.09535
   A14        2.14221   0.00155   0.00100   0.01036   0.01189   2.15410
   A15        2.05748  -0.00374  -0.00693  -0.01604  -0.02375   2.03373
   A16        2.05075  -0.00326  -0.00798  -0.00696  -0.01488   2.03588
   A17        2.16295   0.00079   0.00542   0.00110   0.00677   2.16971
   A18        2.06949   0.00247   0.00255   0.00586   0.00811   2.07760
   A19        2.18603   0.00936   0.01968   0.03102   0.05108   2.23711
   A20        2.03159  -0.01062  -0.02817  -0.04251  -0.07087   1.96071
   A21        2.06556   0.00126   0.00849   0.01149   0.01979   2.08536
   A22        1.98811  -0.01775  -0.03522  -0.05366  -0.08780   1.90031
   A23        2.17706   0.01025   0.02735   0.03021   0.05775   2.23480
   A24        2.07743  -0.00189   0.00027  -0.00499  -0.00482   2.07261
   A25        2.02870  -0.00836  -0.02762  -0.02522  -0.05293   1.97577
   A26        2.08821  -0.00060  -0.00743   0.00261  -0.00539   2.08282
   A27        2.09965  -0.00263  -0.00644  -0.00539  -0.01154   2.08810
   A28        2.09533   0.00324   0.01386   0.00278   0.01693   2.11226
   A29        3.19950  -0.00101   0.01697  -0.10948  -0.09251   3.10699
   A30        3.21840  -0.00007   0.02833  -0.04385  -0.01552   3.20288
   A31        3.14159   0.00000   0.00000   0.00014   0.00013   3.14172
   A32        3.14161   0.00000  -0.00001   0.00011   0.00010   3.14171
    D1       -3.14155   0.00000   0.00000   0.00001   0.00001  -3.14154
    D2        0.00009   0.00000  -0.00001  -0.00004  -0.00005   0.00004
    D3        0.00002   0.00000   0.00000   0.00006   0.00006   0.00008
    D4       -3.14153   0.00000  -0.00001   0.00001   0.00000  -3.14153
    D5        3.14154   0.00000   0.00000   0.00005   0.00004   3.14159
    D6       -0.00017   0.00000   0.00001  -0.00009  -0.00007  -0.00024
    D7       -0.00003   0.00000   0.00000  -0.00001  -0.00001  -0.00003
    D8        3.14145   0.00000   0.00001  -0.00014  -0.00012   3.14132
    D9        0.00005   0.00000  -0.00001  -0.00012  -0.00013  -0.00008
   D10       -3.14153   0.00000  -0.00001  -0.00009  -0.00010   3.14156
   D11       -3.14159   0.00000   0.00000  -0.00006  -0.00006   3.14153
   D12        0.00001   0.00000   0.00000  -0.00003  -0.00004  -0.00002
   D13       -0.00011   0.00000   0.00001   0.00012   0.00014   0.00003
   D14        3.14159   0.00000   0.00000   0.00003   0.00003  -3.14157
   D15        3.14147   0.00000   0.00001   0.00009   0.00011   3.14158
   D16       -0.00002   0.00000   0.00000   0.00000   0.00000  -0.00002
   D17        0.00010   0.00000  -0.00001  -0.00007  -0.00008   0.00002
   D18       -3.14152   0.00000   0.00000   0.00001   0.00000  -3.14152
   D19        3.14159   0.00000   0.00000   0.00003   0.00003  -3.14157
   D20       -0.00003   0.00000   0.00001   0.00010   0.00011   0.00007
   D21       -0.00003   0.00000   0.00001   0.00001   0.00001  -0.00002
   D22       -3.14151   0.00000  -0.00001   0.00014   0.00012  -3.14139
   D23        3.14159   0.00000   0.00000  -0.00006  -0.00006   3.14153
   D24        0.00011   0.00000  -0.00002   0.00007   0.00005   0.00016
   D25        3.14148   0.00000   0.00001   0.00017   0.00017  -3.14154
   D26       -0.00008   0.00000   0.00000  -0.00004  -0.00004  -0.00012
   D27       -0.00014   0.00000   0.00001   0.00024   0.00024   0.00010
   D28        3.14148   0.00000   0.00001   0.00004   0.00004   3.14152
   D29       -3.14151   0.00000   0.00000   0.00004   0.00005  -3.14147
   D30        0.00009   0.00000   0.00000  -0.00020  -0.00020  -0.00011
   D31       -0.00004   0.00000   0.00001  -0.00010  -0.00008  -0.00012
   D32        3.14156  -0.00001   0.00001  -0.00034  -0.00032   3.14124
   D33        0.00000   0.00000  -0.00001  -0.00018  -0.00018  -0.00018
   D34        3.14158   0.00000  -0.00001   0.00007   0.00008  -3.14152
   D35       -0.00004   0.00001   0.00001   0.00051   0.00052   0.00049
   D36        3.14155   0.00001   0.00001   0.00046   0.00046  -3.14117
   D37        0.00011  -0.00001  -0.00001  -0.00056  -0.00058  -0.00047
   D38       -3.14152  -0.00001   0.00000  -0.00036  -0.00037   3.14129
   D39       -3.14148  -0.00001  -0.00001  -0.00051  -0.00052   3.14118
   D40        0.00008  -0.00001   0.00000  -0.00031  -0.00031  -0.00023
         Item               Value     Threshold  Converged?
 Maximum Force            0.019086     0.000450     NO 
 RMS     Force            0.004367     0.000300     NO 
 Maximum Displacement     0.219004     0.001800     NO 
 RMS     Displacement     0.033061     0.001200     NO 
 Predicted change in Energy=-3.029486D-03
 GradGradGradGradGradGradGradGradGradGradGradGradGradGradGradGradGradGrad

                          Input orientation:                          
 ---------------------------------------------------------------------
 Center     Atomic      Atomic             Coordinates (Angstroms)
 Number     Number       Type             X           Y           Z
 ---------------------------------------------------------------------
      1          7           0        0.985135   -0.013506    0.008990
      2          6           0        2.185832    0.030241    0.009131
      3          6           0        3.650175    0.032906    0.009492
      4          6           0        4.309370    1.274421    0.010006
      5          6           0        5.729378    1.333296    0.010304
      6          6           0        6.474500    0.154554    0.010180
      7          6           0        5.842272   -1.128609    0.009724
      8          6           0        4.390696   -1.225656    0.009351
      9          6           0        3.777305   -2.528429    0.009155
     10          6           0        4.414832   -3.800975    0.009147
     11          6           0        5.860650   -3.604708    0.009128
     12          6           0        6.575841   -2.381497    0.009663
     13          7           0        9.238614   -2.422206    0.010007
     14          6           0        8.037083   -2.363401    0.009932
     15          1           0        3.719470    2.201561    0.010161
     16          1           0        6.233172    2.308409    0.010669
     17          1           0        7.573632    0.195738    0.010430
     18          1           0        2.672032   -2.472978    0.009236
     19          1           0        6.519652   -4.495863    0.008713
 ---------------------------------------------------------------------
                    Distance matrix (angstroms):
                    1          2          3          4          5
     1  N    0.000000
     2  C    1.201493   0.000000
     3  C    2.665444   1.464346   0.000000
     4  C    3.565009   2.461178   1.405667   0.000000
     5  C    4.931705   3.775536   2.452367   1.421229   0.000000
     6  C    5.491937   4.290470   2.826944   2.437600   1.394504
     7  C    4.983496   3.835686   2.480807   2.850323   2.464492
     8  C    3.614851   2.537460   1.460256   2.501400   2.887959
     9  C    3.757799   3.013234   2.564488   3.839891   4.327067
    10  C    5.109574   4.432455   3.909391   5.076492   5.299885
    11  C    6.055359   5.168863   4.256575   5.119802   4.939749
    12  C    6.071522   5.008859   3.793266   4.301469   3.810012
    13  N    8.597776   7.467010   6.103951   6.161372   5.139896
    14  C    7.433167   6.321919   4.998724   5.208608   4.357875
    15  H    3.518964   2.658322   2.169762   1.098894   2.189432
    16  H    5.738744   4.644460   3.442352   2.184066   1.097567
    17  H    6.591819   5.390341   3.926834   3.437872   2.166866
    18  H    2.982386   2.550000   2.690022   4.089484   4.882120
    19  H    7.121966   6.266388   5.361310   6.179120   5.882485
                    6          7          8          9         10
     6  C    0.000000
     7  C    1.430461   0.000000
     8  C    2.499444   1.454817   0.000000
     9  C    3.804374   2.494711   1.439953   0.000000
    10  C    4.459646   3.029708   2.575432   1.423311   0.000000
    11  C    3.809050   2.476167   2.796543   2.344931   1.459078
    12  C    2.538075   1.451845   2.472010   2.802391   2.585513
    13  N    3.778891   3.634355   4.993400   5.462342   5.016959
    14  C    2.963404   2.518315   3.819765   4.262973   3.897091
    15  H    3.432263   3.949217   3.492329   4.730343   6.042679
    16  H    2.167333   3.459176   3.985516   5.424600   6.374240
    17  H    1.099903   2.179794   3.485892   4.672599   5.094285
    18  H    4.621979   3.443509   2.123586   1.106664   2.191102
    19  H    4.650636   3.434712   3.902141   3.375094   2.216559
                   11         12         13         14         15
    11  C    0.000000
    12  C    1.416949   0.000000
    13  N    3.578960   2.663084   0.000000
    14  C    2.505535   1.461353   1.202970   0.000000
    15  H    6.188490   5.400304   7.200012   6.283363   0.000000
    16  H    5.924840   4.702409   5.604588   5.007984   2.515971
    17  H    4.168657   2.763644   3.102547   2.600766   4.344869
    18  H    3.383503   3.904881   6.566779   5.366170   4.790454
    19  H    1.108351   2.115112   3.419475   2.617249   7.259236
                   16         17         18         19
    16  H    0.000000
    17  H    2.502041   0.000000
    18  H    5.961828   5.581016   0.000000
    19  H    6.810301   4.808534   4.346981   0.000000
 Stoichiometry    C12H5N2(1-)
 Framework group  C1[X(C12H5N2)]
 Deg. of freedom    51
 Full point group                 C1      NOp   1
 Largest Abelian subgroup         C1      NOp   1
 Largest concise Abelian subgroup C1      NOp   1
                         Standard orientation:                         
 ---------------------------------------------------------------------
 Center     Atomic      Atomic             Coordinates (Angstroms)
 Number     Number       Type             X           Y           Z
 ---------------------------------------------------------------------
      1          7           0       -4.193785   -0.886110   -0.000059
      2          6           0       -3.146810   -0.296677   -0.000155
      3          6           0       -1.846700    0.377135   -0.000072
      4          6           0       -1.830160    1.782705    0.000060
      5          6           0       -0.595224    2.486142    0.000076
      6          6           0        0.607439    1.780279    0.000055
      7          6           0        0.633959    0.350063   -0.000016
      8          6           0       -0.611527   -0.401772   -0.000094
      9          6           0       -0.559275   -1.840776    0.000096
     10          6           0        0.590782   -2.679336    0.000230
     11          6           0        1.785656   -1.841967   -0.000103
     12          6           0        1.860353   -0.426989    0.000043
     13          7           0        4.245370    0.757795   -0.000110
     14          6           0        3.150630    0.259115    0.000031
     15          1           0       -2.779512    2.336148    0.000135
     16          1           0       -0.594632    3.583709    0.000144
     17          1           0        1.565330    2.320863    0.000088
     18          1           0       -1.566934   -2.298299    0.000376
     19          1           0        2.779918   -2.331746   -0.000459
 ---------------------------------------------------------------------
 Rotational constants (GHZ):      1.3280020      0.5351127      0.3814208
 Standard basis: STO-3G (5D, 7F)
 There are    75 symmetry adapted cartesian basis functions of A   symmetry.
 There are    75 symmetry adapted basis functions of A   symmetry.
    75 basis functions,   225 primitive gaussians,    75 cartesian basis functions
    46 alpha electrons       46 beta electrons
       nuclear repulsion energy       702.0741744710 Hartrees.
 NAtoms=   19 NActive=   19 NUniq=   19 SFac= 1.00D+00 NAtFMM=   60 NAOKFM=F Big=F
 Integral buffers will be    131072 words long.
 Raffenetti 2 integral format.
 Two-electron integral symmetry is turned on.
 One-electron integrals computed using PRISM.
 NBasis=    75 RedAO= T EigKep=  1.76D-01  NBF=    75
 NBsUse=    75 1.00D-06 EigRej= -1.00D+00 NBFU=    75
 Initial guess from the checkpoint file:  "/tmp/bnp.472683.sequoia/Gau-2431.chk"
 B after Tr=     0.000000    0.000000    0.000000
         Rot=    0.999991    0.000000    0.000000    0.004271 Ang=   0.49 deg.
 ExpMin= 1.69D-01 ExpMax= 9.91D+01 ExpMxC= 9.91D+01 IAcc=1 IRadAn=         1 AccDes= 0.00D+00
 Harris functional with IExCor=  402 and IRadAn=       1 diagonalized for initial guess.
 HarFok:  IExCor=  402 AccDes= 0.00D+00 IRadAn=         1 IDoV= 1 UseB2=F ITyADJ=14
 ICtDFT=  3500011 ScaDFX=  1.000000  1.000000  1.000000  1.000000
 FoFCou: FMM=F IPFlag=           0 FMFlag=      100000 FMFlg1=           0
         NFxFlg=           0 DoJE=T BraDBF=F KetDBF=T FulRan=T
         wScrn=  0.000000 ICntrl=     500 IOpCl=  0 I1Cent=   200000004 NGrid=           0
         NMat0=    1 NMatS0=      1 NMatT0=    0 NMatD0=    1 NMtDS0=    0 NMtDT0=    0
 Petite list used in FoFCou.
 Keep R1 ints in memory in canonical form, NReq=4993994.
 Requested convergence on RMS density matrix=1.00D-08 within 128 cycles.
 Requested convergence on MAX density matrix=1.00D-06.
 Requested convergence on             energy=1.00D-06.
 No special actions if energy rises.
 Integral accuracy reduced to 1.0D-05 until final iterations.
 Initial convergence to 1.0D-05 achieved.  Increase integral accuracy.
 SCF Done:  E(RB3LYP) =  -562.512148601     A.U. after   19 cycles
            NFock= 19  Conv=0.12D-08     -V/T= 2.0141
 Calling FoFJK, ICntrl=      2127 FMM=F ISym2X=0 I1Cent= 0 IOpClX= 0 NMat=1 NMatS=1 NMatT=0.
 ***** Axes restored to original set *****
 -------------------------------------------------------------------
 Center     Atomic                   Forces (Hartrees/Bohr)
 Number     Number              X              Y              Z
 -------------------------------------------------------------------
      1        7           0.002788644    0.003298799   -0.000003099
      2        6          -0.002617627   -0.006754221    0.000003733
      3        6          -0.000359394    0.004116684   -0.000007198
      4        6           0.000344352   -0.000936948    0.000001297
      5        6           0.000613166    0.000546261   -0.000000520
      6        6          -0.000013687   -0.000406839    0.000000714
      7        6          -0.000086768    0.002684182    0.000006625
      8        6           0.001313931   -0.002086629   -0.000025964
      9        6          -0.003136142    0.004822066   -0.000001881
     10        6          -0.004610950   -0.002273185    0.000026786
     11        6           0.010170928    0.002684094   -0.000019939
     12        6          -0.002182066   -0.002454480    0.000014199
     13        7          -0.003602544    0.000463143   -0.000001754
     14        6           0.002558602   -0.000637591    0.000010808
     15        1           0.000496423   -0.000305329    0.000003269
     16        1          -0.000395195   -0.000300958   -0.000000537
     17        1          -0.000340178    0.000062739   -0.000000041
     18        1           0.000222134   -0.001717373    0.000009621
     19        1          -0.001163629   -0.000804415   -0.000016119
 -------------------------------------------------------------------
 Cartesian Forces:  Max     0.010170928 RMS     0.002332621

 GradGradGradGradGradGradGradGradGradGradGradGradGradGradGradGradGradGrad
 Berny optimization.
 Using GEDIIS/GDIIS optimizer.
 FormGI is forming the generalized inverse of G from B-inverse, IUseBI=4.
 Internal  Forces:  Max     0.007252378 RMS     0.001280299
 Search for a local minimum.
 Step number   3 out of a maximum of  102
 All quantities printed in internal units (Hartrees-Bohrs-Radians)
 Mixed Optimization -- RFO/linear search
 Update second derivatives using D2CorX and points    1    2    3
 DE= -2.82D-03 DEPred=-3.03D-03 R= 9.32D-01
 TightC=F SS=  1.41D+00  RLast= 1.97D-01 DXNew= 8.4853D-01 5.9117D-01
 Trust test= 9.32D-01 RLast= 1.97D-01 DXMaxT set to 5.91D-01
 ITU=  1  1  0
 Use linear search instead of GDIIS.
     Eigenvalues ---    0.01589   0.01815   0.01840   0.01840   0.01847
     Eigenvalues ---    0.01935   0.01954   0.01964   0.01988   0.01995
     Eigenvalues ---    0.02029   0.02152   0.02159   0.02170   0.02182
     Eigenvalues ---    0.02220   0.04862   0.05021   0.15742   0.16000
     Eigenvalues ---    0.16000   0.16009   0.16536   0.20117   0.22124
     Eigenvalues ---    0.23468   0.23607   0.24776   0.24954   0.25063
     Eigenvalues ---    0.25181   0.34787   0.34850   0.34937   0.35059
     Eigenvalues ---    0.35095   0.38215   0.39311   0.39943   0.40016
     Eigenvalues ---    0.40258   0.41382   0.42111   0.43091   0.44679
     Eigenvalues ---    0.45343   0.46730   0.46958   0.49063   1.27463
     Eigenvalues ---    1.36228
 RFO step:  Lambda=-2.45543438D-03 EMin= 1.58919471D-02
 Quartic linear search produced a step of -0.11488.
 Iteration  1 RMS(Cart)=  0.04007757 RMS(Int)=  0.01467842
 Iteration  2 RMS(Cart)=  0.02980391 RMS(Int)=  0.00209031
 Iteration  3 RMS(Cart)=  0.00206029 RMS(Int)=  0.00000284
 Iteration  4 RMS(Cart)=  0.00000256 RMS(Int)=  0.00000255
 Iteration  5 RMS(Cart)=  0.00000000 RMS(Int)=  0.00000255
 Variable       Old X    -DE/DX   Delta X   Delta X   Delta X     New X
                                 (Linear)    (Quad)   (Total)
    R1        2.27049  -0.00291  -0.00150   0.00439   0.00289   2.27339
    R2        2.76721  -0.00016  -0.00154   0.00598   0.00444   2.77165
    R3        2.65632  -0.00036   0.00069  -0.00330  -0.00261   2.65371
    R4        2.75948  -0.00019  -0.00167   0.00659   0.00493   2.76441
    R5        2.68573  -0.00029  -0.00152   0.00587   0.00435   2.69008
    R6        2.07661  -0.00052  -0.00036   0.00019  -0.00017   2.07644
    R7        2.63523  -0.00055   0.00075  -0.00394  -0.00319   2.63204
    R8        2.07410  -0.00045  -0.00050   0.00093   0.00043   2.07453
    R9        2.70318  -0.00051  -0.00048   0.00100   0.00051   2.70369
   R10        2.07852  -0.00034  -0.00037   0.00070   0.00033   2.07884
   R11        2.74920   0.00012  -0.00054   0.00243   0.00189   2.75109
   R12        2.74359   0.00097  -0.00209   0.01026   0.00817   2.75176
   R13        2.72112  -0.00039  -0.00013   0.00004  -0.00009   2.72103
   R14        2.68967   0.00221  -0.00285   0.01602   0.01317   2.70284
   R15        2.09129  -0.00031  -0.00098   0.00325   0.00227   2.09356
   R16        2.75726   0.00582  -0.00592   0.03513   0.02921   2.78647
   R17        2.67764  -0.00289   0.00071  -0.00816  -0.00745   2.67019
   R18        2.09448  -0.00004  -0.00100   0.00404   0.00304   2.09752
   R19        2.76156  -0.00105  -0.00080   0.00107   0.00027   2.76183
   R20        2.27328  -0.00362  -0.00155   0.00411   0.00256   2.27584
    A1        2.06072   0.00125  -0.00066   0.00716   0.00650   2.06722
    A2        2.10081  -0.00107   0.00140  -0.00935  -0.00794   2.09287
    A3        2.12165  -0.00018  -0.00075   0.00219   0.00144   2.12309
    A4        2.10034   0.00062  -0.00006   0.00266   0.00260   2.10294
    A5        2.08683  -0.00004   0.00070  -0.00253  -0.00184   2.08500
    A6        2.09601  -0.00057  -0.00064  -0.00013  -0.00076   2.09525
    A7        2.09307  -0.00038   0.00013  -0.00212  -0.00200   2.09107
    A8        2.08911  -0.00003   0.00089  -0.00391  -0.00302   2.08610
    A9        2.10100   0.00041  -0.00102   0.00603   0.00502   2.10602
   A10        2.12008  -0.00008   0.00033  -0.00190  -0.00156   2.11852
   A11        2.09706  -0.00004  -0.00293   0.01145   0.00853   2.10558
   A12        2.06605   0.00012   0.00259  -0.00956  -0.00696   2.05908
   A13        2.09535   0.00056  -0.00136   0.00787   0.00651   2.10187
   A14        2.15410  -0.00044  -0.00137   0.00457   0.00320   2.15730
   A15        2.03373  -0.00012   0.00273  -0.01244  -0.00971   2.02402
   A16        2.03588  -0.00054   0.00171  -0.00870  -0.00699   2.02888
   A17        2.16971  -0.00066  -0.00078   0.00124   0.00045   2.17016
   A18        2.07760   0.00119  -0.00093   0.00747   0.00654   2.08414
   A19        2.23711  -0.00134  -0.00587   0.01878   0.01292   2.25003
   A20        1.96071   0.00245   0.00814  -0.02021  -0.01207   1.94865
   A21        2.08536  -0.00111  -0.00227   0.00143  -0.00085   2.08451
   A22        1.90031   0.00042   0.01009  -0.03675  -0.02667   1.87364
   A23        2.23480  -0.00142  -0.00663   0.02162   0.01498   2.24978
   A24        2.07261  -0.00077   0.00055  -0.00796  -0.00741   2.06521
   A25        1.97577   0.00219   0.00608  -0.01365  -0.00757   1.96820
   A26        2.08282   0.00126   0.00062   0.00133   0.00194   2.08476
   A27        2.08810  -0.00073   0.00133  -0.00768  -0.00635   2.08176
   A28        2.11226  -0.00052  -0.00194   0.00635   0.00441   2.11667
   A29        3.10699   0.00725   0.01063   0.31729   0.32791   3.43491
   A30        3.20288  -0.00065   0.00178  -0.01846  -0.01668   3.18620
   A31        3.14172  -0.00001  -0.00002  -0.00032  -0.00033   3.14139
   A32        3.14171   0.00000  -0.00001   0.00010   0.00009   3.14180
    D1       -3.14154   0.00000   0.00000  -0.00002  -0.00002  -3.14155
    D2        0.00004   0.00000   0.00001  -0.00001   0.00000   0.00004
    D3        0.00008   0.00000  -0.00001   0.00008   0.00007   0.00016
    D4       -3.14153   0.00000   0.00000   0.00009   0.00009  -3.14144
    D5        3.14159   0.00000   0.00000   0.00006   0.00006  -3.14154
    D6       -0.00024  -0.00001   0.00001  -0.00031  -0.00030  -0.00054
    D7       -0.00003   0.00000   0.00000  -0.00004  -0.00004  -0.00007
    D8        3.14132  -0.00001   0.00001  -0.00040  -0.00039   3.14093
    D9       -0.00008   0.00000   0.00001  -0.00008  -0.00007  -0.00015
   D10        3.14156   0.00000   0.00001  -0.00006  -0.00005   3.14151
   D11        3.14153   0.00000   0.00001  -0.00009  -0.00008   3.14145
   D12       -0.00002   0.00000   0.00000  -0.00007  -0.00006  -0.00008
   D13        0.00003   0.00000  -0.00002   0.00004   0.00003   0.00005
   D14       -3.14157   0.00000   0.00000   0.00001   0.00000  -3.14157
   D15        3.14158   0.00000  -0.00001   0.00002   0.00000   3.14158
   D16       -0.00002   0.00000   0.00000  -0.00002  -0.00002  -0.00004
   D17        0.00002   0.00000   0.00001   0.00000   0.00001   0.00003
   D18       -3.14152   0.00000   0.00000  -0.00005  -0.00005  -3.14157
[...]
 ! D14   D(4,5,6,17)           179.7484         -DE/DX =    0.0                 !
 ! D15   D(16,5,6,7)           179.9334         -DE/DX =    0.0                 !
 ! D16   D(16,5,6,17)           -0.46           -DE/DX =    0.0                 !
 ! D17   D(5,6,7,8)             -0.7815         -DE/DX =    0.0                 !
 ! D18   D(5,6,7,12)           178.0486         -DE/DX =    0.0                 !
 ! D19   D(17,6,7,8)           179.6056         -DE/DX =    0.0                 !
 ! D20   D(17,6,7,12)           -1.5644         -DE/DX =    0.0                 !
 ! D21   D(6,7,8,3)              1.7363         -DE/DX =    0.0                 !
 ! D22   D(6,7,8,9)           -170.9663         -DE/DX =    0.0                 !
 ! D23   D(12,7,8,3)          -177.157          -DE/DX =    0.0                 !
 ! D24   D(12,7,8,9)            10.1404         -DE/DX =    0.0                 !
 ! D25   D(6,7,12,11)         -172.392          -DE/DX =    0.0                 !
 ! D26   D(6,7,12,14)            2.9225         -DE/DX =    0.0                 !
 ! D27   D(8,7,12,11)            6.4569         -DE/DX =    0.0                 !
 ! D28   D(8,7,12,14)         -178.2287         -DE/DX =    0.0                 !
 ! D29   D(3,8,9,10)           173.4444         -DE/DX =    0.0                 !
 ! D30   D(3,8,9,18)           -10.9851         -DE/DX =    0.0                 !
 ! D31   D(7,8,9,10)           -14.4041         -DE/DX =    0.0                 !
 ! D32   D(7,8,9,18)           161.1664         -DE/DX =    0.0                 !
 ! D33   D(8,9,10,11)            0.8996         -DE/DX =    0.0                 !
 ! D34   D(18,9,10,11)        -174.4162         -DE/DX =    0.0                 !
 ! D35   D(9,10,11,12)          17.4808         -DE/DX =    0.0                 !
 ! D36   D(9,10,11,19)        -165.2168         -DE/DX =    0.0                 !
 ! D37   D(10,11,12,7)         -21.4037         -DE/DX =    0.0                 !
 ! D38   D(10,11,12,14)        163.3685         -DE/DX =    0.0                 !
 ! D39   D(19,11,12,7)         161.2042         -DE/DX =    0.0                 !
 ! D40   D(19,11,12,14)        -14.0235         -DE/DX =    0.0                 !
 --------------------------------------------------------------------------------
 GradGradGradGradGradGradGradGradGradGradGradGradGradGradGradGradGradGrad

                          Input orientation:                          
 ---------------------------------------------------------------------
 Center     Atomic      Atomic             Coordinates (Angstroms)
 Number     Number       Type             X           Y           Z
 ---------------------------------------------------------------------
      1          7           0        0.986717    0.036184   -0.166071
      2          6           0        2.185586    0.008429   -0.115029
      3          6           0        3.646496    0.022744   -0.056218
      4          6           0        4.307811    1.270661   -0.035504
      5          6           0        5.721131    1.322781    0.009173
      6          6           0        6.468258    0.141791    0.044080
      7          6           0        5.839334   -1.142974    0.032964
      8          6           0        4.383508   -1.225409    0.001408
      9          6           0        3.773078   -2.525888    0.191821
     10          6           0        4.470183   -3.737216    0.115768
     11          6           0        5.868032   -3.609478   -0.150018
     12          6           0        6.586674   -2.393173    0.026833
     13          7           0        9.238687   -2.394508    0.125534
     14          6           0        8.037022   -2.368897    0.096214
     15          1           0        3.719489    2.197267   -0.045823
     16          1           0        6.227487    2.296277    0.019713
     17          1           0        7.565684    0.185635    0.074561
     18          1           0        2.708827   -2.501385    0.482567
     19          1           0        6.455636   -4.489540   -0.468555
 ---------------------------------------------------------------------
                    Distance matrix (angstroms):
                    1          2          3          4          5
     1  N    0.000000
     2  C    1.200277   0.000000
     3  C    2.662080   1.462163   0.000000
     4  C    3.545511   2.470504   1.412467   0.000000
     5  C    4.909248   3.773993   2.449180   1.414986   0.000000
     6  C    5.486585   4.287701   2.826053   2.438896   1.397912
     7  C    4.997791   3.833732   2.485033   2.859350   2.468701
     8  C    3.627376   2.523246   1.450653   2.497490   2.877946
     9  C    3.802119   3.006169   2.563800   3.840755   4.317467
    10  C    5.143201   4.393462   3.852965   5.012791   5.213425
    11  C    6.092483   5.162450   4.258763   5.124759   4.937014
    12  C    6.107250   5.015714   3.806337   4.315180   3.815467
    13  N    8.607457   7.455080   6.094978   6.145969   5.119081
    14  C    7.453859   6.319462   5.001990   5.212557   4.358832
    15  H    3.486084   2.673697   2.175772   1.097647   2.185022
    16  H    5.710360   4.646435   3.440382   2.177175   1.097361
    17  H    6.585063   5.386353   3.924752   3.435569   2.167892
    18  H    3.134589   2.632503   2.746041   4.129586   4.891045
    19  H    7.105121   6.212088   5.331229   6.162840   5.877993
                    6          7          8          9         10
     6  C    0.000000
     7  C    1.430486   0.000000
     8  C    2.493440   1.458500   0.000000
     9  C    3.795040   2.491405   1.449181   0.000000
    10  C    4.363959   2.934540   2.515902   1.399662   0.000000
    11  C    3.803940   2.473449   2.812566   2.383244   1.428616
    12  C    2.537786   1.456555   2.493644   2.821552   2.508764
    13  N    3.756957   3.623605   4.995495   5.467590   4.953947
    14  C    2.960961   2.517285   3.829455   4.267904   3.820343
    15  H    3.433482   3.956912   3.486813   4.729433   5.983957
    16  H    2.168035   3.461110   3.975282   5.413595   6.284932
    17  H    1.098724   2.178811   3.481759   4.663686   4.997258
    18  H    4.616490   3.442019   2.159672   1.103524   2.182703
    19  H    4.659633   3.439601   3.894757   3.389416   2.202146
                   11         12         13         14         15
    11  C    0.000000
    12  C    1.423770   0.000000
    13  N    3.593521   2.653850   0.000000
    14  C    2.510814   1.452210   1.202295   0.000000
    15  H    6.192365   5.412778   7.181596   6.285787   0.000000
    16  H    5.919118   4.703191   5.575123   5.004410   2.510807
    17  H    4.163573   2.758802   3.075496   2.597742   4.342163
    18  H    3.407141   3.906034   6.540487   5.343827   4.835076
    19  H    1.105103   2.158086   3.533762   2.704972   7.237305
                   16         17         18         19
    16  H    0.000000
    17  H    2.499718   0.000000
    18  H    5.967643   5.565574   0.000000
    19  H    6.807185   4.835746   4.346949   0.000000
 Stoichiometry    C12H5N2(1-)
 Framework group  C1[X(C12H5N2)]
 Deg. of freedom    51
 Full point group                 C1      NOp   1
 Largest Abelian subgroup         C1      NOp   1
 Largest concise Abelian subgroup C1      NOp   1
                         Standard orientation:                         
 ---------------------------------------------------------------------
 Center     Atomic      Atomic             Coordinates (Angstroms)
 Number     Number       Type             X           Y           Z
 ---------------------------------------------------------------------
      1          7           0       -4.217315   -0.850610   -0.081977
      2          6           0       -3.138969   -0.324223   -0.054532
      3          6           0       -1.847122    0.359966   -0.023989
      4          6           0       -1.832929    1.772214   -0.003562
      5          6           0       -0.601018    2.468106    0.014156
      6          6           0        0.605807    1.762658    0.022630
      7          6           0        0.637517    0.332573    0.010796
      8          6           0       -0.617918   -0.409780    0.006718
      9          6           0       -0.558152   -1.845323    0.195847
     10          6           0        0.615769   -2.600705    0.094054
     11          6           0        1.792399   -1.844763   -0.197554
     12          6           0        1.875435   -0.434243   -0.022459
     13          7           0        4.232927    0.783514    0.024651
     14          6           0        3.153560    0.253939    0.018956
     15          1           0       -2.781319    2.324732    0.006897
     16          1           0       -0.598535    3.565414    0.024660
     17          1           0        1.560729    2.306006    0.032212
     18          1           0       -1.507992   -2.312728    0.507458
     19          1           0        2.711561   -2.356270   -0.536306
 ---------------------------------------------------------------------
 Rotational constants (GHZ):      1.3475617      0.5329822      0.3829358

 **********************************************************************

            Population analysis using the SCF density.

 **********************************************************************

 Orbital symmetries:
       Occupied  (A) (A) (A) (A) (A) (A) (A) (A) (A) (A) (A) (A)
                 (A) (A) (A) (A) (A) (A) (A) (A) (A) (A) (A) (A)
                 (A) (A) (A) (A) (A) (A) (A) (A) (A) (A) (A) (A)
                 (A) (A) (A) (A) (A) (A) (A) (A) (A) (A)
       Virtual   (A) (A) (A) (A) (A) (A) (A) (A) (A) (A) (A) (A)
                 (A) (A) (A) (A) (A) (A) (A) (A) (A) (A) (A) (A)
                 (A) (A) (A) (A) (A)
 The electronic state is 1-A.
 Alpha  occ. eigenvalues --  -13.98544 -13.95259  -9.89917  -9.89110  -9.87920
 Alpha  occ. eigenvalues --   -9.87285  -9.87231  -9.86993  -9.86854  -9.86269
 Alpha  occ. eigenvalues --   -9.85920  -9.82363  -9.80354  -9.70094  -0.72093
 Alpha  occ. eigenvalues --   -0.69678  -0.67315  -0.61430  -0.58642  -0.53750
 Alpha  occ. eigenvalues --   -0.51722  -0.44743  -0.41914  -0.40959  -0.35529
 Alpha  occ. eigenvalues --   -0.31573  -0.28910  -0.28113  -0.25768  -0.23631
 Alpha  occ. eigenvalues --   -0.21355  -0.20596  -0.19004  -0.16873  -0.16599
 Alpha  occ. eigenvalues --   -0.14698  -0.13911  -0.13488  -0.13082  -0.11778
 Alpha  occ. eigenvalues --   -0.10905  -0.09322  -0.06709  -0.02128   0.00972
 Alpha  occ. eigenvalues --    0.09340
 Alpha virt. eigenvalues --    0.16655   0.22154   0.23362   0.26296   0.28507
 Alpha virt. eigenvalues --    0.30018   0.35083   0.37230   0.43842   0.44614
 Alpha virt. eigenvalues --    0.47689   0.50614   0.53372   0.56314   0.57839
 Alpha virt. eigenvalues --    0.58706   0.60826   0.63988   0.67318   0.70268
 Alpha virt. eigenvalues --    0.71541   0.74262   0.77660   0.83065   0.85508
 Alpha virt. eigenvalues --    0.92359   0.93156   1.07010   1.09939
          Condensed to atoms (all electrons):
               1          2          3          4          5          6
     1  N    6.591975   0.659917  -0.010796  -0.000169  -0.000001   0.000000
     2  C    0.659917   4.931913   0.419096  -0.031166   0.000909   0.000015
     3  C   -0.010796   0.419096   4.786599   0.497915  -0.029217  -0.009843
     4  C   -0.000169  -0.031166   0.497915   4.835530   0.490486  -0.029637
     5  C   -0.000001   0.000909  -0.029217   0.490486   4.826606   0.512346
     6  C    0.000000   0.000015  -0.009843  -0.029637   0.512346   4.833997
     7  C   -0.000001   0.000783  -0.027084  -0.009066  -0.027356   0.477852
     8  C    0.000017  -0.027458   0.457574  -0.026453  -0.008429  -0.025008
     9  C   -0.000089  -0.003592  -0.025069   0.000603   0.000033   0.000735
    10  C    0.000000   0.000014   0.000681  -0.000006   0.000000   0.000027
    11  C    0.000000   0.000001   0.000054  -0.000001  -0.000007   0.000646
    12  C    0.000000  -0.000005   0.000751   0.000029   0.000739  -0.027250
    13  N    0.000000   0.000000   0.000000   0.000000   0.000000  -0.000114
    14  C    0.000000   0.000000  -0.000004   0.000000   0.000017  -0.004434
    15  H    0.000061  -0.003633  -0.025111   0.387303  -0.024680   0.001362
    16  H    0.000000  -0.000018   0.001336  -0.025598   0.388080  -0.025415
    17  H    0.000000   0.000001   0.000029   0.001401  -0.025550   0.385983
    18  H   -0.000199   0.001815  -0.003663   0.000013  -0.000001  -0.000020
    19  H    0.000000   0.000000   0.000001   0.000000   0.000000  -0.000016
               7          8          9         10         11         12
     1  N   -0.000001   0.000017  -0.000089   0.000000   0.000000   0.000000
     2  C    0.000783  -0.027458  -0.003592   0.000014   0.000001  -0.000005
     3  C   -0.027084   0.457574  -0.025069   0.000681   0.000054   0.000751
     4  C   -0.009066  -0.026453   0.000603  -0.000006  -0.000001   0.000029
     5  C   -0.027356  -0.008429   0.000033   0.000000  -0.000007   0.000739
     6  C    0.477852  -0.025008   0.000735   0.000027   0.000646  -0.027250
     7  C    4.802819   0.456249  -0.029430  -0.008162  -0.029823   0.456000
     8  C    0.456249   4.825171   0.450026  -0.021582  -0.012545  -0.028306
     9  C   -0.029430   0.450026   4.910557   0.492585  -0.031583  -0.010981
    10  C   -0.008162  -0.021582   0.492585   5.345445   0.452849  -0.020868
    11  C   -0.029823  -0.012545  -0.031583   0.452849   4.894508   0.475175
    12  C    0.456000  -0.028306  -0.010981  -0.020868   0.475175   4.835529
    13  N    0.000021  -0.000001   0.000000  -0.000001  -0.000148  -0.011387
    14  C   -0.029264   0.000721   0.000042   0.000737  -0.026756   0.425133
    15  H    0.000029   0.001174  -0.000014   0.000000   0.000000   0.000001
    16  H    0.001331   0.000023   0.000000   0.000000   0.000000  -0.000015
    17  H   -0.025360   0.001244  -0.000017  -0.000001   0.000023  -0.003596
    18  H    0.001201  -0.033565   0.381430  -0.031189   0.002061   0.000030
    19  H    0.001205   0.000009   0.001944  -0.031052   0.381038  -0.033007
              13         14         15         16         17         18
     1  N    0.000000   0.000000   0.000061   0.000000   0.000000  -0.000199
     2  C    0.000000   0.000000  -0.003633  -0.000018   0.000001   0.001815
     3  C    0.000000  -0.000004  -0.025111   0.001336   0.000029  -0.003663
     4  C    0.000000   0.000000   0.387303  -0.025598   0.001401   0.000013
     5  C    0.000000   0.000017  -0.024680   0.388080  -0.025550  -0.000001
     6  C   -0.000114  -0.004434   0.001362  -0.025415   0.385983  -0.000020
     7  C    0.000021  -0.029264   0.000029   0.001331  -0.025360   0.001201
     8  C   -0.000001   0.000721   0.001174   0.000023   0.001244  -0.033565
     9  C    0.000000   0.000042  -0.000014   0.000000  -0.000017   0.381430
    10  C   -0.000001   0.000737   0.000000   0.000000  -0.000001  -0.031189
    11  C   -0.000148  -0.026756   0.000000   0.000000   0.000023   0.002061
    12  C   -0.011387   0.425133   0.000001  -0.000015  -0.003596   0.000030
    13  N    6.626843   0.653336   0.000000   0.000000  -0.000092   0.000000
    14  C    0.653336   4.951796   0.000000   0.000000   0.001701   0.000001
    15  H    0.000000   0.000000   0.607310  -0.003435  -0.000033   0.000000
    16  H    0.000000   0.000000  -0.003435   0.613535  -0.003702   0.000000
    17  H   -0.000092   0.001701  -0.000033  -0.003702   0.600923   0.000000
    18  H    0.000000   0.000001   0.000000   0.000000   0.000000   0.649542
    19  H    0.000099  -0.003264   0.000000   0.000000  -0.000001  -0.000021
              19
     1  N    0.000000
     2  C    0.000000
     3  C    0.000001
     4  C    0.000000
     5  C    0.000000
     6  C   -0.000016
     7  C    0.001205
     8  C    0.000009
     9  C    0.001944
    10  C   -0.031052
    11  C    0.381038
    12  C   -0.033007
    13  N    0.000099
    14  C   -0.003264
    15  H    0.000000
    16  H    0.000000
    17  H   -0.000001
    18  H   -0.000021
    19  H    0.648025
 Mulliken charges:
               1
     1  N   -0.240717
     2  C    0.051410
     3  C   -0.033252
     4  C   -0.091183
     5  C   -0.103976
     6  C   -0.091226
     7  C   -0.011945
     8  C   -0.008861
     9  C   -0.137182
    10  C   -0.179478
    11  C   -0.105493
    12  C   -0.057973
    13  N   -0.268558
    14  C    0.030238
    15  H    0.059666
    16  H    0.053878
    17  H    0.067047
    18  H    0.032566
    19  H    0.035039
 Sum of Mulliken charges =  -1.00000
 Mulliken charges with hydrogens summed into heavy atoms:
               1
     1  N   -0.240717
     2  C    0.051410
     3  C   -0.033252
     4  C   -0.031517
     5  C   -0.050098
     6  C   -0.024179
     7  C   -0.011945
     8  C   -0.008861
     9  C   -0.104616
    10  C   -0.179478
    11  C   -0.070454
    12  C   -0.057973
    13  N   -0.268558
    14  C    0.030238
 Electronic spatial extent (au):  <R**2>=           2671.6887
 Charge=             -1.0000 electrons
 Dipole moment (field-independent basis, Debye):
    X=             -1.6850    Y=              4.4893    Z=             -0.1791  Tot=              4.7984
 Quadrupole moment (field-independent basis, Debye-Ang):
   XX=           -123.0994   YY=            -91.1990   ZZ=            -74.4648
   XY=             -7.8685   XZ=             -0.8204   YZ=              0.7796
 Traceless Quadrupole moment (field-independent basis, Debye-Ang):
   XX=            -26.8450   YY=              5.0555   ZZ=             21.7896
   XY=             -7.8685   XZ=             -0.8204   YZ=              0.7796
 Octapole moment (field-independent basis, Debye-Ang**2):
  XXX=            -17.1417  YYY=             54.4815  ZZZ=             -0.2843  XYY=             -8.6376
  XXY=              4.0257  XXZ=              1.4256  XZZ=             -0.0842  YZZ=             -0.3069
  YYZ=             -3.0231  XYZ=              1.1925
 Hexadecapole moment (field-independent basis, Debye-Ang**3):
 XXXX=          -3349.0670 YYYY=          -1184.4834 ZZZZ=            -64.4250 XXXY=           -241.4907
 XXXZ=            -15.5243 YYYX=             32.1494 YYYZ=             10.7020 ZZZX=              1.2376
 ZZZY=              0.6342 XXYY=           -597.9651 XXZZ=           -389.3837 YYZZ=           -191.3342
 XXYZ=             -2.2859 YYXZ=             -3.8447 ZZXY=              6.7850
 N-N= 7.031547692018D+02 E-N=-2.728361154053D+03  KE= 5.546320874901D+02
 1\1\GINC-N054\FOpt\RB3LYP\STO-3G\C12H5N2(1-)\R2532\15-Jun-2021\0\\#N B
 3LYP/STO-3G OPT\\1Naph\\-1,1\N,0.9867167535,0.0361835447,-0.1660713425
 \C,2.1855864604,0.0084292107,-0.1150290136\C,3.6464956253,0.0227442179
 ,-0.0562175096\C,4.307811032,1.2706608355,-0.0355043577\C,5.7211307481
 ,1.3227811975,0.0091729194\C,6.4682584784,0.1417906568,0.0440798392\C,
 5.8393336536,-1.1429735946,0.0329641491\C,4.3835076091,-1.2254092901,0
 .0014082168\C,3.7730784035,-2.5258879507,0.1918214684\C,4.4701828619,-
 3.7372158324,0.1157679692\C,5.8680324737,-3.6094780104,-0.1500176703\C
 ,6.5866737785,-2.3931726087,0.0268329869\N,9.2386873122,-2.3945083956,
 0.1255344115\C,8.0370222982,-2.368897039,0.0962141058\H,3.7194885348,2
 .1972666696,-0.0458225004\H,6.2274866525,2.2962767541,0.0197132844\H,7
 .5656842509,0.1856350028,0.0745609307\H,2.7088269588,-2.5013853946,0.4
 825666261\H,6.4556361146,-4.4895399736,-0.4685545135\\Version=ES64L-G0
 9RevD.01\State=1-A\HF=-562.5153942\RMSD=3.343e-09\RMSF=4.032e-05\Dipol
 e=0.2245834,1.8725153,-0.0849953\Quadrupole=-19.6986317,3.5426639,16.1
 559678,6.2786323,-1.0365769,1.0448771\PG=C01 [X(C12H5N2)]\\@


 The best way to pay for a lovely moment is to enjoy it.
 -- Richard Bach
 Job cpu time:       0 days  0 hours 14 minutes  9.3 seconds.
 File lengths (MBytes):  RWF=      6 Int=      0 D2E=      0 Chk=      2 Scr=      1
 Normal termination of Gaussian 09 at Tue Jun 15 11:27:54 2021.
