 Entering Gaussian System, Link 0=/usr/local/apps//g09/g09
 Input=28.com
 Output=28.out
 Initial command:
 /usr/local/apps//g09/l1.exe "/tmp/bnp.472695.sequoia/Gau-17318.inp" -scrdir="/tmp/bnp.472695.sequoia/"
 Entering Link 1 = /usr/local/apps//g09/l1.exe PID=     17319.
  
 Copyright (c) 1988,1990,1992,1993,1995,1998,2003,2009,2013,
            Gaussian, Inc.  All Rights Reserved.
  
 This is part of the Gaussian(R) 09 program.  It is based on
 the Gaussian(R) 03 system (copyright 2003, Gaussian, Inc.),
 the Gaussian(R) 98 system (copyright 1998, Gaussian, Inc.),
 the Gaussian(R) 94 system (copyright 1995, Gaussian, Inc.),
 the Gaussian 92(TM) system (copyright 1992, Gaussian, Inc.),
 the Gaussian 90(TM) system (copyright 1990, Gaussian, Inc.),
 the Gaussian 88(TM) system (copyright 1988, Gaussian, Inc.),
 the Gaussian 86(TM) system (copyright 1986, Carnegie Mellon
 University), and the Gaussian 82(TM) system (copyright 1983,
 Carnegie Mellon University). Gaussian is a federally registered
 trademark of Gaussian, Inc.
  
 This software contains proprietary and confidential information,
 including trade secrets, belonging to Gaussian, Inc.
  
 This software is provided under written license and may be
 used, copied, transmitted, or stored only in accord with that
 written license.
  
 The following legend is applicable only to US Government
 contracts under FAR:
  
                    RESTRICTED RIGHTS LEGEND
  
 Use, reproduction and disclosure by the US Government is
 subject to restrictions as set forth in subparagraphs (a)
 and (c) of the Commercial Computer Software - Restricted
 Rights clause in FAR 52.227-19.
  
 Gaussian, Inc.
 340 Quinnipiac St., Bldg. 40, Wallingford CT 06492
  
  
 ---------------------------------------------------------------
 Warning -- This program may not be used in any manner that
 competes with the business of Gaussian, Inc. or will provide
 assistance to any competitor of Gaussian, Inc.  The licensee
 of this program is prohibited from giving any competitor of
 Gaussian, Inc. access to this program.  By using this program,
 the user acknowledges that Gaussian, Inc. is engaged in the
 business of creating and licensing software in the field of
 computational chemistry and represents and warrants to the
 licensee that it is not a competitor of Gaussian, Inc. and that
 it will not use this program in any manner prohibited above.
 ---------------------------------------------------------------
  

 Cite this work as:
 Gaussian 09, Revision D.01,
 M. J. Frisch, G. W. Trucks, H. B. Schlegel, G. E. Scuseria, 
 M. A. Robb, J. R. Cheeseman, G. Scalmani, V. Barone, B. Mennucci, 
 G. A. Petersson, H. Nakatsuji, M. Caricato, X. Li, H. P. Hratchian, 
 A. F. Izmaylov, J. Bloino, G. Zheng, J. L. Sonnenberg, M. Hada, 
 M. Ehara, K. Toyota, R. Fukuda, J. Hasegawa, M. Ishida, T. Nakajima, 
 Y. Honda, O. Kitao, H. Nakai, T. Vreven, J. A. Montgomery, Jr., 
 J. E. Peralta, F. Ogliaro, M. Bearpark, J. J. Heyd, E. Brothers, 
 K. N. Kudin, V. N. Staroverov, T. Keith, R. Kobayashi, J. Normand, 
 K. Raghavachari, A. Rendell, J. C. Burant, S. S. Iyengar, J. Tomasi, 
 M. Cossi, N. Rega, J. M. Millam, M. Klene, J. E. Knox, J. B. Cross, 
 V. Bakken, C. Adamo, J. Jaramillo, R. Gomperts, R. E. Stratmann, 
 O. Yazyev, A. J. Austin, R. Cammi, C. Pomelli, J. W. Ochterski, 
 R. L. Martin, K. Morokuma, V. G. Zakrzewski, G. A. Voth, 
 P. Salvador, J. J. Dannenberg, S. Dapprich, A. D. Daniels, 
 O. Farkas, J. B. Foresman, J. V. Ortiz, J. Cioslowski, 
 and D. J. Fox, Gaussian, Inc., Wallingford CT, 2013.
 
 ******************************************
 Gaussian 09:  ES64L-G09RevD.01 24-Apr-2013
                15-Jun-2021 
 ******************************************
 -------------------
 #N B3LYP/STO-3G OPT
 -------------------
 1/14=-1,18=20,19=15,26=3,38=1/1,3;
 2/9=110,12=2,17=6,18=5,40=1/2;
 3/6=3,11=2,16=1,25=1,30=1,71=1,74=-5/1,2,3;
 4//1;
 5/5=2,38=5/2;
 6/7=2,8=2,9=2,10=2,28=1/1;
 7//1,2,3,16;
 1/14=-1,18=20,19=15,26=3/3(2);
 2/9=110/2;
 99//99;
 2/9=110/2;
 3/6=3,11=2,16=1,25=1,30=1,71=1,74=-5/1,2,3;
 4/5=5,16=3,69=1/1;
 5/5=2,38=5/2;
 7//1,2,3,16;
 1/14=-1,18=20,19=15,26=3/3(-5);
 2/9=110/2;
 6/7=2,8=2,9=2,10=2,19=2,28=1/1;
 99/9=1/99;
 -----
 1Naph
 -----
 Symbolic Z-matrix:
 Charge = -1 Multiplicity = 1
 N                     1.12159  -0.18317   0.06771 
 C                     2.28154  -0.20138   0.06802 
 C                     3.71851  -0.21622   0.06792 
 C                     4.38089   1.02098   0.06804 
 C                     5.77017   1.07388   0.06825 
 C                     6.50647  -0.1081    0.06794 
 C                     5.86911  -1.35806   0.06793 
 C                     4.45155  -1.43358   0.06791 
 C                     3.85865  -2.72352   0.06779 
 C                     4.64284  -3.88418   0.06811 
 C                     6.02719  -3.78379   0.06818 
 C                     6.63642  -2.53254   0.06788 
 N                     3.56469  -6.23992   0.06739 
 C                     4.04663  -5.18439   0.06801 
 H                     3.81427   1.95136   0.06797 
 H                     6.28144   2.03384   0.06862 
 H                     7.59386  -0.04364   0.06818 
 H                     2.77323  -2.83152   0.0673 
 H                     7.7233   -2.48929   0.06763 
 

 GradGradGradGradGradGradGradGradGradGradGradGradGradGradGradGradGradGrad
 Berny optimization.
 Initialization pass.
                           ----------------------------
                           !    Initial Parameters    !
                           ! (Angstroms and Degrees)  !
 --------------------------                            --------------------------
 ! Name  Definition              Value          Derivative Info.                !
 --------------------------------------------------------------------------------
 ! R1    R(1,2)                  1.1601         estimate D2E/DX2                !
 ! R2    R(2,3)                  1.437          estimate D2E/DX2                !
 ! R3    R(3,4)                  1.4034         estimate D2E/DX2                !
 ! R4    R(3,8)                  1.421          estimate D2E/DX2                !
 ! R5    R(4,5)                  1.3903         estimate D2E/DX2                !
 ! R6    R(4,15)                 1.0893         estimate D2E/DX2                !
 ! R7    R(5,6)                  1.3926         estimate D2E/DX2                !
 ! R8    R(5,16)                 1.0876         estimate D2E/DX2                !
 ! R9    R(6,7)                  1.4031         estimate D2E/DX2                !
 ! R10   R(6,17)                 1.0893         estimate D2E/DX2                !
 ! R11   R(7,8)                  1.4196         estimate D2E/DX2                !
 ! R12   R(7,12)                 1.4029         estimate D2E/DX2                !
 ! R13   R(8,9)                  1.4197         estimate D2E/DX2                !
 ! R14   R(9,10)                 1.4007         estimate D2E/DX2                !
 ! R15   R(9,18)                 1.0908         estimate D2E/DX2                !
 ! R16   R(10,11)                1.388          estimate D2E/DX2                !
 ! R17   R(10,14)                1.4304         estimate D2E/DX2                !
 ! R18   R(11,12)                1.3917         estimate D2E/DX2                !
 ! R19   R(12,19)                1.0877         estimate D2E/DX2                !
 ! R20   R(13,14)                1.1603         estimate D2E/DX2                !
 ! A1    A(2,3,4)              117.5723         estimate D2E/DX2                !
 ! A2    A(2,3,8)              121.6462         estimate D2E/DX2                !
 ! A3    A(4,3,8)              120.7815         estimate D2E/DX2                !
 ! A4    A(3,4,5)              120.3446         estimate D2E/DX2                !
 ! A5    A(3,4,15)             120.4938         estimate D2E/DX2                !
 ! A6    A(5,4,15)             119.1616         estimate D2E/DX2                !
 ! A7    A(4,5,6)              119.7397         estimate D2E/DX2                !
 ! A8    A(4,5,16)             120.2202         estimate D2E/DX2                !
 ! A9    A(6,5,16)             120.0401         estimate D2E/DX2                !
 ! A10   A(5,6,7)              121.0624         estimate D2E/DX2                !
 ! A11   A(5,6,17)             118.5278         estimate D2E/DX2                !
 ! A12   A(7,6,17)             120.4097         estimate D2E/DX2                !
 ! A13   A(6,7,8)              120.0668         estimate D2E/DX2                !
 ! A14   A(6,7,12)             119.8254         estimate D2E/DX2                !
 ! A15   A(8,7,12)             120.1078         estimate D2E/DX2                !
 ! A16   A(3,8,7)              118.0049         estimate D2E/DX2                !
 ! A17   A(3,8,9)              124.2604         estimate D2E/DX2                !
 ! A18   A(7,8,9)              117.7346         estimate D2E/DX2                !
 ! A19   A(8,9,10)             121.2703         estimate D2E/DX2                !
 ! A20   A(8,9,18)             120.3674         estimate D2E/DX2                !
 ! A21   A(10,9,18)            118.3623         estimate D2E/DX2                !
 ! A22   A(9,10,11)            119.8969         estimate D2E/DX2                !
 ! A23   A(9,10,14)            121.3216         estimate D2E/DX2                !
 ! A24   A(11,10,14)           118.7815         estimate D2E/DX2                !
 ! A25   A(10,11,12)           120.109          estimate D2E/DX2                !
 ! A26   A(7,12,11)            120.8813         estimate D2E/DX2                !
 ! A27   A(7,12,19)            120.8786         estimate D2E/DX2                !
 ! A28   A(11,12,19)           118.2401         estimate D2E/DX2                !
 ! A29   L(1,2,3,13,-1)        180.3077         estimate D2E/DX2                !
 ! A30   L(10,14,13,1,-1)      180.093          estimate D2E/DX2                !
 ! A31   L(1,2,3,13,-2)        179.9802         estimate D2E/DX2                !
 ! A32   L(10,14,13,1,-2)      179.9674         estimate D2E/DX2                !
 ! D1    D(2,3,4,5)            179.9858         estimate D2E/DX2                !
 ! D2    D(2,3,4,15)            -0.0142         estimate D2E/DX2                !
 ! D3    D(8,3,4,5)             -0.0047         estimate D2E/DX2                !
 ! D4    D(8,3,4,15)           179.9953         estimate D2E/DX2                !
 ! D5    D(2,3,8,7)           -179.9944         estimate D2E/DX2                !
 ! D6    D(2,3,8,9)              0.01           estimate D2E/DX2                !
 ! D7    D(4,3,8,7)             -0.0043         estimate D2E/DX2                !
 ! D8    D(4,3,8,9)           -179.9999         estimate D2E/DX2                !
 ! D9    D(3,4,5,6)              0.019          estimate D2E/DX2                !
 ! D10   D(3,4,5,16)          -179.9831         estimate D2E/DX2                !
 ! D11   D(15,4,5,6)          -179.981          estimate D2E/DX2                !
 ! D12   D(15,4,5,16)            0.0169         estimate D2E/DX2                !
 ! D13   D(4,5,6,7)             -0.0245         estimate D2E/DX2                !
 ! D14   D(4,5,6,17)          -179.996          estimate D2E/DX2                !
 ! D15   D(16,5,6,7)           179.9777         estimate D2E/DX2                !
 ! D16   D(16,5,6,17)            0.0062         estimate D2E/DX2                !
 ! D17   D(5,6,7,8)              0.0153         estimate D2E/DX2                !
 ! D18   D(5,6,7,12)          -179.9875         estimate D2E/DX2                !
 ! D19   D(17,6,7,8)           179.9863         estimate D2E/DX2                !
 ! D20   D(17,6,7,12)           -0.0165         estimate D2E/DX2                !
 ! D21   D(6,7,8,3)             -0.0009         estimate D2E/DX2                !
 ! D22   D(6,7,8,9)            179.995          estimate D2E/DX2                !
 ! D23   D(12,7,8,3)          -179.9981         estimate D2E/DX2                !
 ! D24   D(12,7,8,9)            -0.0022         estimate D2E/DX2                !
 ! D25   D(6,7,12,11)          179.9851         estimate D2E/DX2                !
 ! D26   D(6,7,12,19)           -0.0134         estimate D2E/DX2                !
 ! D27   D(8,7,12,11)           -0.0177         estimate D2E/DX2                !
 ! D28   D(8,7,12,19)          179.9838         estimate D2E/DX2                !
 ! D29   D(3,8,9,10)          -179.9846         estimate D2E/DX2                !
 ! D30   D(3,8,9,18)             0.0242         estimate D2E/DX2                !
 ! D31   D(7,8,9,10)             0.0199         estimate D2E/DX2                !
 ! D32   D(7,8,9,18)          -179.9714         estimate D2E/DX2                !
 ! D33   D(8,9,10,11)           -0.0178         estimate D2E/DX2                !
 ! D34   D(8,9,10,14)          179.999          estimate D2E/DX2                !
 ! D35   D(18,9,10,11)         179.9736         estimate D2E/DX2                !
 ! D36   D(18,9,10,14)          -0.0095         estimate D2E/DX2                !
 ! D37   D(9,10,11,12)          -0.0025         estimate D2E/DX2                !
 ! D38   D(14,10,11,12)        179.9811         estimate D2E/DX2                !
 ! D39   D(10,11,12,7)           0.0203         estimate D2E/DX2                !
 ! D40   D(10,11,12,19)       -179.9812         estimate D2E/DX2                !
 --------------------------------------------------------------------------------
 Trust Radius=3.00D-01 FncErr=1.00D-07 GrdErr=1.00D-06
 Number of steps in this run=    102 maximum allowed number of steps=    114.
 GradGradGradGradGradGradGradGradGradGradGradGradGradGradGradGradGradGrad

                          Input orientation:                          
 ---------------------------------------------------------------------
 Center     Atomic      Atomic             Coordinates (Angstroms)
 Number     Number       Type             X           Y           Z
 ---------------------------------------------------------------------
      1          7           0        1.121590   -0.183170    0.067710
      2          6           0        2.281540   -0.201380    0.068020
      3          6           0        3.718510   -0.216220    0.067920
      4          6           0        4.380890    1.020980    0.068040
      5          6           0        5.770170    1.073880    0.068250
      6          6           0        6.506470   -0.108100    0.067940
      7          6           0        5.869110   -1.358060    0.067930
      8          6           0        4.451550   -1.433580    0.067910
      9          6           0        3.858650   -2.723520    0.067790
     10          6           0        4.642840   -3.884180    0.068110
     11          6           0        6.027190   -3.783790    0.068180
     12          6           0        6.636420   -2.532540    0.067880
     13          7           0        3.564690   -6.239920    0.067390
     14          6           0        4.046630   -5.184390    0.068010
     15          1           0        3.814270    1.951360    0.067970
     16          1           0        6.281440    2.033840    0.068620
     17          1           0        7.593860   -0.043640    0.068180
     18          1           0        2.773230   -2.831520    0.067300
     19          1           0        7.723300   -2.489290    0.067630
 ---------------------------------------------------------------------
                    Distance matrix (angstroms):
                    1          2          3          4          5
     1  N    0.000000
     2  C    1.160093   0.000000
     3  C    2.597130   1.437047   0.000000
     4  C    3.474624   2.429287   1.403357   0.000000
     5  C    4.815545   3.714408   2.423565   1.390287   0.000000
     6  C    5.385403   4.225960   2.790056   2.406847   1.392557
     7  C    4.890737   3.769425   2.434929   2.806177   2.433952
     8  C    3.556987   2.495448   1.421025   2.455577   2.833040
     9  C    3.734284   2.974637   2.511213   3.780743   4.251371
    10  C    5.108491   4.374786   3.782634   4.912149   5.084607
    11  C    6.085177   5.183006   4.249419   5.078988   4.864465
    12  C    5.994405   4.939563   3.725525   4.208910   3.708996
    13  N    6.530923   6.173365   6.025664   7.306631   7.639098
    14  C    5.793795   5.286391   4.978993   6.214366   6.491266
    15  H    3.436094   2.642641   2.169694   1.089342   2.143715
    16  H    5.615976   4.582075   3.410481   2.153596   1.087621
    17  H    6.473774   5.314661   3.879191   3.384759   2.138854
    18  H    3.121165   2.675705   2.780890   4.174485   4.922784
    19  H    6.992908   5.903159   4.604909   4.847030   4.063360
                    6          7          8          9         10
     6  C    0.000000
     7  C    1.403078   0.000000
     8  C    2.445321   1.419570   0.000000
     9  C    3.721743   2.430315   1.419674   0.000000
    10  C    4.210926   2.808028   2.458055   1.400745   0.000000
    11  C    3.706805   2.430875   2.829510   2.413864   1.387985
    12  C    2.427920   1.402914   2.445684   2.784327   2.408587
    13  N    6.800977   5.398417   4.887476   3.528666   2.590737
    14  C    5.640881   4.238188   3.772603   2.468039   1.430389
    15  H    3.389589   3.895463   3.444408   4.675091   5.894070
    16  H    2.153728   3.416870   3.920650   5.338763   6.140682
    17  H    1.089299   2.168516   3.435993   4.597124   4.843373
    18  H    4.621049   3.428638   2.184261   1.090780   2.145585
    19  H    2.674087   2.172027   3.437859   3.871742   3.381561
                   11         12         13         14         15
    11  C    0.000000
    12  C    1.391685   0.000000
    13  N    3.478000   4.814581   0.000000
    14  C    2.425757   3.706659   1.160349   0.000000
    15  H    6.147273   5.298102   8.195081   7.139532   0.000000
    16  H    5.823183   4.580157   8.708377   7.556270   2.468548
    17  H    4.055019   2.666705   7.391082   6.245811   4.273795
    18  H    3.390439   3.874742   3.499086   2.675359   4.894865
    19  H    2.133663   1.087740   5.600113   4.558669   5.916070
                   16         17         18         19
    16  H    0.000000
    17  H    2.457309   0.000000
    18  H    5.998272   5.568730   0.000000
    19  H    4.747385   2.449073   4.961886   0.000000
 Stoichiometry    C12H5N2(1-)
 Framework group  C1[X(C12H5N2)]
 Deg. of freedom    51
 Full point group                 C1      NOp   1
 Largest Abelian subgroup         C1      NOp   1
 Largest concise Abelian subgroup C1      NOp   1
                         Standard orientation:                         
 ---------------------------------------------------------------------
 Center     Atomic      Atomic             Coordinates (Angstroms)
 Number     Number       Type             X           Y           Z
 ---------------------------------------------------------------------
      1          7           0        1.622186    3.375058   -0.000216
      2          6           0        1.596581    2.215248    0.000094
      3          6           0        1.572580    0.778402   -0.000006
      4          6           0        2.805532    0.108147    0.000114
      5          6           0        2.849573   -1.281442    0.000324
      6          6           0        1.662923   -2.010191    0.000014
      7          6           0        0.417052   -1.364875    0.000004
      8          6           0        0.350571    0.053138   -0.000016
      9          6           0       -0.935563    0.654250   -0.000136
     10          6           0       -2.101199   -0.122525    0.000184
     11          6           0       -2.009636   -1.507487    0.000254
     12          6           0       -0.762296   -2.124681   -0.000046
     13          7           0       -4.450017    0.970622   -0.000536
     14          6           0       -3.397581    0.481963    0.000084
     15          1           0        3.739505    0.668824    0.000044
     16          1           0        3.806254   -1.798821    0.000694
     17          1           0        1.720449   -3.097970    0.000254
     18          1           0       -1.036640    1.740336   -0.000626
     19          1           0       -0.725976   -3.211815   -0.000296
 ---------------------------------------------------------------------
 Rotational constants (GHZ):      1.1341835      0.5655125      0.3773586
 Standard basis: STO-3G (5D, 7F)
 There are    75 symmetry adapted cartesian basis functions of A   symmetry.
 There are    75 symmetry adapted basis functions of A   symmetry.
    75 basis functions,   225 primitive gaussians,    75 cartesian basis functions
    46 alpha electrons       46 beta electrons
       nuclear repulsion energy       708.0189842852 Hartrees.
 NAtoms=   19 NActive=   19 NUniq=   19 SFac= 1.00D+00 NAtFMM=   60 NAOKFM=F Big=F
 Integral buffers will be    131072 words long.
 Raffenetti 2 integral format.
 Two-electron integral symmetry is turned on.
 One-electron integrals computed using PRISM.
 NBasis=    75 RedAO= T EigKep=  1.55D-01  NBF=    75
 NBsUse=    75 1.00D-06 EigRej= -1.00D+00 NBFU=    75
 ExpMin= 1.69D-01 ExpMax= 9.91D+01 ExpMxC= 9.91D+01 IAcc=1 IRadAn=         1 AccDes= 0.00D+00
 Harris functional with IExCor=  402 and IRadAn=       1 diagonalized for initial guess.
 HarFok:  IExCor=  402 AccDes= 0.00D+00 IRadAn=         1 IDoV= 1 UseB2=F ITyADJ=14
 ICtDFT=  3500011 ScaDFX=  1.000000  1.000000  1.000000  1.000000
 FoFCou: FMM=F IPFlag=           0 FMFlag=      100000 FMFlg1=           0
         NFxFlg=           0 DoJE=T BraDBF=F KetDBF=T FulRan=T
         wScrn=  0.000000 ICntrl=     500 IOpCl=  0 I1Cent=   200000004 NGrid=           0
         NMat0=    1 NMatS0=      1 NMatT0=    0 NMatD0=    1 NMtDS0=    0 NMtDT0=    0
 Petite list used in FoFCou.
 Keep R1 ints in memory in canonical form, NReq=4993994.
 Requested convergence on RMS density matrix=1.00D-08 within 128 cycles.
 Requested convergence on MAX density matrix=1.00D-06.
 Requested convergence on             energy=1.00D-06.
 No special actions if energy rises.
 Integral accuracy reduced to 1.0D-05 until final iterations.
 EnCoef did     6 forward-backward iterations
 EnCoef did     4 forward-backward iterations
 EnCoef did   100 forward-backward iterations
 EnCoef did   100 forward-backward iterations
 EnCoef did     3 forward-backward iterations
 EnCoef did     3 forward-backward iterations
 Initial convergence to 1.0D-05 achieved.  Increase integral accuracy.
 SCF Done:  E(RB3LYP) =  -562.481725648     A.U. after   26 cycles
            NFock= 26  Conv=0.73D-08     -V/T= 2.0129

 **********************************************************************

            Population analysis using the SCF density.

 **********************************************************************

 Orbital symmetries:
       Occupied  (A) (A) (A) (A) (A) (A) (A) (A) (A) (A) (A) (A)
                 (A) (A) (A) (A) (A) (A) (A) (A) (A) (A) (A) (A)
                 (A) (A) (A) (A) (A) (A) (A) (A) (A) (A) (A) (A)
                 (A) (A) (A) (A) (A) (A) (A) (A) (A) (A)
       Virtual   (A) (A) (A) (A) (A) (A) (A) (A) (A) (A) (A) (A)
                 (A) (A) (A) (A) (A) (A) (A) (A) (A) (A) (A) (A)
                 (A) (A) (A) (A) (A)
 The electronic state is 1-A.
 Alpha  occ. eigenvalues --  -13.98810 -13.95291  -9.90061  -9.89529  -9.87819
 Alpha  occ. eigenvalues --   -9.87284  -9.87014  -9.86381  -9.86232  -9.86217
 Alpha  occ. eigenvalues --   -9.84961  -9.84422  -9.79882  -9.67598  -0.74106
 Alpha  occ. eigenvalues --   -0.71001  -0.68703  -0.62424  -0.59511  -0.55663
 Alpha  occ. eigenvalues --   -0.51086  -0.46491  -0.42843  -0.40678  -0.34580
 Alpha  occ. eigenvalues --   -0.34129  -0.30842  -0.27967  -0.24578  -0.23529
 Alpha  occ. eigenvalues --   -0.22411  -0.21730  -0.20037  -0.17656  -0.17157
 Alpha  occ. eigenvalues --   -0.15575  -0.15210  -0.14300  -0.13841  -0.11884
 Alpha  occ. eigenvalues --   -0.10850  -0.10183  -0.07775  -0.02735   0.01088
 Alpha  occ. eigenvalues --    0.12798
 Alpha virt. eigenvalues --    0.16065   0.22826   0.26071   0.27698   0.30504
 Alpha virt. eigenvalues --    0.31139   0.35107   0.40571   0.45638   0.48560
 Alpha virt. eigenvalues --    0.49696   0.51154   0.55377   0.58372   0.59764
 Alpha virt. eigenvalues --    0.61077   0.64014   0.64173   0.70566   0.72399
 Alpha virt. eigenvalues --    0.75090   0.78060   0.81066   0.84905   0.89979
 Alpha virt. eigenvalues --    0.97574   0.98974   1.14614   1.18248
          Condensed to atoms (all electrons):
               1          2          3          4          5          6
     1  N    6.579814   0.685734  -0.011403  -0.000220  -0.000001   0.000000
     2  C    0.685734   4.892947   0.429484  -0.033805   0.001055   0.000023
     3  C   -0.011403   0.429484   4.769841   0.503521  -0.030462  -0.011568
     4  C   -0.000220  -0.033805   0.503521   4.829708   0.497581  -0.031541
     5  C   -0.000001   0.001055  -0.030462   0.497581   4.828144   0.512081
     6  C    0.000000   0.000023  -0.011568  -0.031541   0.512081   4.842500
     7  C   -0.000002   0.000946  -0.029135  -0.010629  -0.029217   0.477378
     8  C   -0.000039  -0.028372   0.466583  -0.028649  -0.009280  -0.028651
     9  C   -0.000095  -0.004058  -0.028275   0.000755   0.000034   0.001016
    10  C    0.000000   0.000015   0.000772  -0.000007   0.000000   0.000045
    11  C    0.000000   0.000000   0.000015   0.000000  -0.000014   0.001093
    12  C    0.000000  -0.000007   0.000947   0.000045   0.000974  -0.034105
    13  N    0.000000   0.000000   0.000000   0.000000   0.000000   0.000000
    14  C    0.000000   0.000000  -0.000006   0.000000   0.000000   0.000000
    15  H    0.000049  -0.004057  -0.024983   0.390540  -0.026674   0.001553
    16  H    0.000000  -0.000021   0.001469  -0.026484   0.390440  -0.025951
    17  H    0.000000   0.000001   0.000039   0.001567  -0.028090   0.390341
    18  H   -0.000157   0.001319  -0.003542   0.000015  -0.000001  -0.000018
    19  H    0.000000   0.000000  -0.000021  -0.000001   0.000016  -0.004195
               7          8          9         10         11         12
     1  N   -0.000002  -0.000039  -0.000095   0.000000   0.000000   0.000000
     2  C    0.000946  -0.028372  -0.004058   0.000015   0.000000  -0.000007
     3  C   -0.029135   0.466583  -0.028275   0.000772   0.000015   0.000947
     4  C   -0.010629  -0.028649   0.000755  -0.000007   0.000000   0.000045
     5  C   -0.029217  -0.009280   0.000034   0.000000  -0.000014   0.000974
     6  C    0.477378  -0.028651   0.001016   0.000045   0.001093  -0.034105
     7  C    4.795950   0.465779  -0.029956  -0.011769  -0.027947   0.471604
     8  C    0.465779   4.784015   0.491025  -0.028285  -0.011096  -0.031254
     9  C   -0.029956   0.491025   4.869501   0.489455  -0.030033  -0.013404
    10  C   -0.011769  -0.028285   0.489455   4.799874   0.459952  -0.030332
    11  C   -0.027947  -0.011096  -0.030033   0.459952   5.374586   0.497027
    12  C    0.471604  -0.031254  -0.013404  -0.030332   0.497027   4.891775
    13  N    0.000000  -0.000001  -0.000029  -0.011234  -0.000072  -0.000002
    14  C   -0.000022   0.000870  -0.037599   0.420387  -0.038295   0.001401
    15  H    0.000040   0.001281  -0.000017   0.000000   0.000000   0.000001
    16  H    0.001472   0.000024   0.000001   0.000000   0.000000  -0.000022
    17  H   -0.025553   0.001387  -0.000021   0.000001   0.000037  -0.004476
    18  H    0.001347  -0.025741   0.381921  -0.026374   0.001574   0.000096
    19  H   -0.031525   0.001272  -0.000021   0.002064  -0.035834   0.388146
              13         14         15         16         17         18
     1  N    0.000000   0.000000   0.000049   0.000000   0.000000  -0.000157
     2  C    0.000000   0.000000  -0.004057  -0.000021   0.000001   0.001319
     3  C    0.000000  -0.000006  -0.024983   0.001469   0.000039  -0.003542
     4  C    0.000000   0.000000   0.390540  -0.026484   0.001567   0.000015
     5  C    0.000000   0.000000  -0.026674   0.390440  -0.028090  -0.000001
     6  C    0.000000   0.000000   0.001553  -0.025951   0.390341  -0.000018
     7  C    0.000000  -0.000022   0.000040   0.001472  -0.025553   0.001347
     8  C   -0.000001   0.000870   0.001281   0.000024   0.001387  -0.025741
     9  C   -0.000029  -0.037599  -0.000017   0.000001  -0.000021   0.381921
    10  C   -0.011234   0.420387   0.000000   0.000000   0.000001  -0.026374
    11  C   -0.000072  -0.038295   0.000000   0.000000   0.000037   0.001574
    12  C   -0.000002   0.001401   0.000001  -0.000022  -0.004476   0.000096
    13  N    6.599062   0.686876   0.000000   0.000000   0.000000   0.000051
    14  C    0.686876   4.908691   0.000000   0.000000   0.000000  -0.002916
    15  H    0.000000   0.000000   0.606005  -0.004023  -0.000041  -0.000001
    16  H    0.000000   0.000000  -0.004023   0.614954  -0.003999   0.000000
    17  H    0.000000   0.000000  -0.000041  -0.003999   0.610903   0.000001
    18  H    0.000051  -0.002916  -0.000001   0.000000   0.000001   0.615940
    19  H    0.000000  -0.000008   0.000000  -0.000001   0.001182   0.000004
              19
     1  N    0.000000
     2  C    0.000000
     3  C   -0.000021
     4  C   -0.000001
     5  C    0.000016
     6  C   -0.004195
     7  C   -0.031525
     8  C    0.001272
     9  C   -0.000021
    10  C    0.002064
    11  C   -0.035834
    12  C    0.388146
    13  N    0.000000
    14  C   -0.000008
    15  H    0.000000
    16  H   -0.000001
    17  H    0.001182
    18  H    0.000004
    19  H    0.649634
 Mulliken charges:
               1
     1  N   -0.253681
     2  C    0.058796
     3  C   -0.033274
     4  C   -0.092395
     5  C   -0.106586
     6  C   -0.089999
     7  C   -0.018759
     8  C   -0.020867
     9  C   -0.090198
    10  C   -0.064563
    11  C   -0.190993
    12  C   -0.138414
    13  N   -0.274650
    14  C    0.060621
    15  H    0.060328
    16  H    0.052141
    17  H    0.056722
    18  H    0.056483
    19  H    0.029289
 Sum of Mulliken charges =  -1.00000
 Mulliken charges with hydrogens summed into heavy atoms:
               1
     1  N   -0.253681
     2  C    0.058796
     3  C   -0.033274
     4  C   -0.032067
     5  C   -0.054445
     6  C   -0.033277
     7  C   -0.018759
     8  C   -0.020867
     9  C   -0.033715
    10  C   -0.064563
    11  C   -0.190993
    12  C   -0.109125
    13  N   -0.274650
    14  C    0.060621
 Electronic spatial extent (au):  <R**2>=           2710.5035
 Charge=             -1.0000 electrons
 Dipole moment (field-independent basis, Debye):
    X=              6.6851    Y=             -1.4704    Z=             -0.0174  Tot=              6.8449
 Quadrupole moment (field-independent basis, Debye-Ang):
   XX=           -114.7732   YY=            -97.4695   ZZ=            -74.0357
   XY=             -6.4296   XZ=             -0.0701   YZ=             -0.1247
 Traceless Quadrupole moment (field-independent basis, Debye-Ang):
   XX=            -19.3471   YY=             -2.0434   ZZ=             21.3904
   XY=             -6.4296   XZ=             -0.0701   YZ=             -0.1247
 Octapole moment (field-independent basis, Debye-Ang**2):
  XXX=            157.7259  YYY=            -48.4700  ZZZ=              0.0019  XYY=             -5.8852
  XXY=            -21.6099  XXZ=              0.1139  XZZ=             -3.6747  YZZ=              4.7227
  YYZ=              0.3288  XYZ=              0.4489
 Hexadecapole moment (field-independent basis, Debye-Ang**3):
 XXXX=          -2952.8805 YYYY=          -1419.2617 ZZZZ=            -58.2252 XXXY=            112.8422
 XXXZ=             -0.9570 YYYX=           -137.9815 YYYZ=             -0.5737 ZZZX=             -0.1103
 ZZZY=             -0.0473 XXYY=           -677.9705 XXZZ=           -384.4131 YYZZ=           -205.2473
 XXYZ=             -0.6262 YYXZ=             -0.7813 ZZXY=              1.8166
 N-N= 7.080189842852D+02 E-N=-2.738236400129D+03  KE= 5.552988424098D+02
 Calling FoFJK, ICntrl=      2127 FMM=F ISym2X=0 I1Cent= 0 IOpClX= 0 NMat=1 NMatS=1 NMatT=0.
 ***** Axes restored to original set *****
 -------------------------------------------------------------------
 Center     Atomic                   Forces (Hartrees/Bohr)
 Number     Number              X              Y              Z
 -------------------------------------------------------------------
      1        7          -0.106941640    0.002859648   -0.000363262
      2        6           0.088727315   -0.006057301    0.000698181
      3        6          -0.007823686    0.022498191   -0.000817356
      4        6          -0.014600225    0.005177703    0.001211585
      5        6           0.020703933   -0.001802225   -0.003082172
      6        6           0.003705890    0.035542604    0.001749368
      7        6           0.028633320    0.006071351    0.011225830
      8        6          -0.016729279   -0.024361490    0.001801662
      9        6          -0.025244843   -0.001937097   -0.007970313
     10        6          -0.004826477    0.041552811    0.002294963
     11        6           0.067037794   -0.041111260   -0.008192944
     12        6          -0.017714946   -0.034906780    0.002480550
     13        7          -0.041685192   -0.095641460   -0.003129681
     14        6           0.021396197    0.067028171    0.012429467
     15        1          -0.006189822    0.003729513    0.000275244
     16        1           0.002677699    0.007639987   -0.001199885
     17        1           0.007083539   -0.003728231    0.001784698
     18        1          -0.009262994    0.006793132   -0.004527264
     19        1           0.011053416    0.010652731   -0.006668670
 -------------------------------------------------------------------
 Cartesian Forces:  Max     0.106941640 RMS     0.029798541

 GradGradGradGradGradGradGradGradGradGradGradGradGradGradGradGradGradGrad
 Berny optimization.
 FormGI is forming the generalized inverse of G from B-inverse, IUseBI=4.
 Internal  Forces:  Max     0.106973593 RMS     0.020393416
 Search for a local minimum.
 Step number   1 out of a maximum of  102
 All quantities printed in internal units (Hartrees-Bohrs-Radians)
 Mixed Optimization -- RFO/linear search
 Second derivative matrix not updated -- first step.
 ITU=  0
     Eigenvalues ---    0.01599   0.01599   0.01855   0.01868   0.01919
     Eigenvalues ---    0.01939   0.01965   0.02031   0.02035   0.02095
     Eigenvalues ---    0.02110   0.02128   0.02130   0.02164   0.02185
     Eigenvalues ---    0.02203   0.04862   0.04862   0.16000   0.16000
     Eigenvalues ---    0.16000   0.16000   0.16000   0.22089   0.22974
     Eigenvalues ---    0.23527   0.23949   0.24915   0.25000   0.25000
     Eigenvalues ---    0.25000   0.34723   0.34889   0.34894   0.35075
     Eigenvalues ---    0.35089   0.38291   0.39993   0.40206   0.40682
     Eigenvalues ---    0.40933   0.42980   0.43497   0.45091   0.45327
     Eigenvalues ---    0.45635   0.45979   0.46829   0.47154   1.27565
     Eigenvalues ---    1.27733
 RFO step:  Lambda=-5.74079101D-02 EMin= 1.59869984D-02
 Linear search not attempted -- first point.
 Maximum step size (   0.300) exceeded in Quadratic search.
    -- Step size scaled by   0.909
 Iteration  1 RMS(Cart)=  0.05759906 RMS(Int)=  0.00149450
 Iteration  2 RMS(Cart)=  0.00236771 RMS(Int)=  0.00055605
 Iteration  3 RMS(Cart)=  0.00000249 RMS(Int)=  0.00055605
 Iteration  4 RMS(Cart)=  0.00000000 RMS(Int)=  0.00055605
 Variable       Old X    -DE/DX   Delta X   Delta X   Delta X     New X
                                 (Linear)    (Quad)   (Total)
    R1        2.19226   0.10697   0.00000   0.07289   0.07289   2.26514
    R2        2.71562   0.01818   0.00000   0.03615   0.03615   2.75178
    R3        2.65196   0.01049   0.00000   0.01809   0.01800   2.66996
    R4        2.68535   0.03194   0.00000   0.06078   0.06073   2.74608
    R5        2.62726   0.02915   0.00000   0.04904   0.04899   2.67625
    R6        2.05856   0.00640   0.00000   0.01434   0.01434   2.07289
    R7        2.63155   0.00934   0.00000   0.01583   0.01588   2.64743
    R8        2.05531   0.00800   0.00000   0.01782   0.01782   2.07313
    R9        2.65143   0.03714   0.00000   0.06710   0.06719   2.71862
   R10        2.05848   0.00685   0.00000   0.01533   0.01533   2.07381
   R11        2.68260   0.03748   0.00000   0.07087   0.07077   2.75337
   R12        2.65112   0.04021   0.00000   0.07181   0.07207   2.72319
   R13        2.68280   0.00328   0.00000   0.00544   0.00504   2.68783
   R14        2.64702   0.02331   0.00000   0.04145   0.04119   2.68822
   R15        2.06128   0.00855   0.00000   0.01921   0.01921   2.08048
   R16        2.62291   0.05482   0.00000   0.09409   0.09423   2.71714
   R17        2.70304   0.03447   0.00000   0.06715   0.06715   2.77020
   R18        2.62990   0.01439   0.00000   0.02549   0.02590   2.65581
   R19        2.05553   0.01147   0.00000   0.02556   0.02556   2.08109
   R20        2.19274   0.10432   0.00000   0.07117   0.07117   2.26391
    A1        2.05202   0.00357   0.00000   0.01125   0.01135   2.06338
    A2        2.12313  -0.00304   0.00000  -0.00829  -0.00819   2.11493
    A3        2.10804  -0.00053   0.00000  -0.00295  -0.00317   2.10487
    A4        2.10041   0.00197   0.00000   0.00241   0.00219   2.10260
    A5        2.10301  -0.00443   0.00000  -0.01562  -0.01551   2.08750
    A6        2.07976   0.00246   0.00000   0.01320   0.01330   2.09307
    A7        2.08985   0.00345   0.00000   0.00792   0.00785   2.09770
    A8        2.09824  -0.00299   0.00000  -0.00924  -0.00920   2.08904
    A9        2.09510  -0.00046   0.00000   0.00132   0.00135   2.09645
   A10        2.11294   0.00357   0.00000   0.01148   0.01153   2.12447
   A11        2.06870   0.00248   0.00000   0.01209   0.01205   2.08075
   A12        2.10155  -0.00605   0.00000  -0.02357  -0.02361   2.07794
   A13        2.09556  -0.01053   0.00000  -0.02807  -0.02812   2.06744
   A14        2.09135   0.01537   0.00000   0.04541   0.04519   2.13654
   A15        2.09628  -0.00484   0.00000  -0.01735  -0.01786   2.07842
   A16        2.05957   0.00206   0.00000   0.00921   0.00964   2.06921
   A17        2.16875  -0.00396   0.00000  -0.01093  -0.01040   2.15835
   A18        2.05486   0.00190   0.00000   0.00173   0.00076   2.05561
   A19        2.11657  -0.00501   0.00000  -0.01818  -0.01942   2.09715
   A20        2.10081  -0.00541   0.00000  -0.02401  -0.02359   2.07722
   A21        2.06581   0.01042   0.00000   0.04219   0.04265   2.10847
   A22        2.09260   0.02401   0.00000   0.07199   0.07132   2.16392
   A23        2.11746  -0.01883   0.00000  -0.05620  -0.05586   2.06160
   A24        2.07313  -0.00518   0.00000  -0.01580  -0.01546   2.05766
   A25        2.09630  -0.03364   0.00000  -0.09649  -0.09619   2.00011
   A26        2.10978   0.01758   0.00000   0.05827   0.05845   2.16823
   A27        2.10973  -0.01928   0.00000  -0.07301  -0.07321   2.03652
   A28        2.06368   0.00170   0.00000   0.01474   0.01449   2.07817
   A29        3.14696   0.00259   0.00000   0.03207   0.03207   3.17903
   A30        3.14322   0.00395   0.00000   0.03391   0.03391   3.17712
   A31        3.14125  -0.00071   0.00000  -0.00884  -0.00884   3.13241
   A32        3.14102  -0.00551   0.00000  -0.04729  -0.04729   3.09374
    D1        3.14134   0.00058   0.00000   0.00666   0.00646  -3.13538
    D2       -0.00025   0.00004   0.00000   0.00053   0.00047   0.00022
    D3       -0.00008   0.00020   0.00000   0.00214   0.00202   0.00194
    D4        3.14151  -0.00034   0.00000  -0.00400  -0.00397   3.13754
    D5       -3.14150   0.00017   0.00000   0.00200   0.00215  -3.13935
    D6        0.00017   0.00058   0.00000   0.00694   0.00654   0.00671
    D7       -0.00008   0.00057   0.00000   0.00671   0.00673   0.00665
    D8       -3.14159   0.00098   0.00000   0.01165   0.01112  -3.13047
    D9        0.00033  -0.00102   0.00000  -0.01174  -0.01170  -0.01137
   D10       -3.14130  -0.00083   0.00000  -0.00949  -0.00946   3.13243
   D11       -3.14126  -0.00050   0.00000  -0.00569  -0.00569   3.13623
   D12        0.00030  -0.00030   0.00000  -0.00343  -0.00345  -0.00315
   D13       -0.00043   0.00108   0.00000   0.01246   0.01256   0.01213
   D14       -3.14152   0.00032   0.00000   0.00361   0.00351  -3.13801
   D15        3.14120   0.00089   0.00000   0.01020   0.01030  -3.13168
   D16        0.00011   0.00012   0.00000   0.00135   0.00126   0.00137
   D17        0.00027  -0.00030   0.00000  -0.00344  -0.00362  -0.00335
   D18       -3.14137  -0.00398   0.00000  -0.04662  -0.04666   3.09516
   D19        3.14135   0.00048   0.00000   0.00558   0.00542  -3.13641
   D20       -0.00029  -0.00321   0.00000  -0.03760  -0.03762  -0.03791
   D21       -0.00002  -0.00051   0.00000  -0.00605  -0.00591  -0.00593
   D22        3.14150  -0.00090   0.00000  -0.01066  -0.01004   3.13146
   D23       -3.14156   0.00318   0.00000   0.03725   0.03566  -3.10590
   D24       -0.00004   0.00279   0.00000   0.03264   0.03153   0.03149
   D25        3.14133  -0.00059   0.00000  -0.00709  -0.00670   3.13463
   D26       -0.00023  -0.00285   0.00000  -0.03289  -0.03184  -0.03208
   D27       -0.00031  -0.00427   0.00000  -0.05028  -0.05000  -0.05031
   D28        3.14131  -0.00654   0.00000  -0.07608  -0.07514   3.06617
   D29       -3.14132   0.00221   0.00000   0.02582   0.02466  -3.11666
   D30        0.00042  -0.00028   0.00000  -0.00330  -0.00372  -0.00330
   D31        0.00035   0.00262   0.00000   0.03075   0.02902   0.02937
   D32       -3.14109   0.00012   0.00000   0.00163   0.00064  -3.14046
   D33       -0.00031  -0.00666   0.00000  -0.07772  -0.07933  -0.07964
   D34        3.14158  -0.00659   0.00000  -0.07643  -0.07690   3.06468
   D35        3.14113  -0.00422   0.00000  -0.04917  -0.05043   3.09070
   D36       -0.00017  -0.00415   0.00000  -0.04789  -0.04801  -0.04817
   D37       -0.00004   0.00520   0.00000   0.06015   0.06073   0.06068
   D38        3.14126   0.00512   0.00000   0.05888   0.05830  -3.08363
   D39        0.00035   0.00023   0.00000   0.00336   0.00473   0.00508
   D40       -3.14126   0.00243   0.00000   0.02849   0.03043  -3.11084
         Item               Value     Threshold  Converged?
 Maximum Force            0.106974     0.000450     NO 
 RMS     Force            0.020393     0.000300     NO 
 Maximum Displacement     0.176775     0.001800     NO 
 RMS     Displacement     0.057212     0.001200     NO 
 Predicted change in Energy=-3.225426D-02
 GradGradGradGradGradGradGradGradGradGradGradGradGradGradGradGradGradGrad

                          Input orientation:                          
 ---------------------------------------------------------------------
 Center     Atomic      Atomic             Coordinates (Angstroms)
 Number     Number       Type             X           Y           Z
 ---------------------------------------------------------------------
      1          7           0        1.046603   -0.164379    0.028913
      2          6           0        2.244330   -0.205116    0.053063
      3          6           0        3.700416   -0.200252    0.068729
      4          6           0        4.364288    1.046864    0.083246
      5          6           0        5.779192    1.107186    0.091212
      6          6           0        6.534586   -0.072648    0.098516
      7          6           0        5.912073   -1.369535    0.083365
      8          6           0        4.456932   -1.440956    0.064153
      9          6           0        3.856842   -2.730214    0.036584
     10          6           0        4.669454   -3.897477    0.064609
     11          6           0        6.106640   -3.877336    0.025914
     12          6           0        6.674103   -2.591628    0.034126
     13          7           0        3.496953   -6.287176    0.142816
     14          6           0        4.003431   -5.201532    0.133835
     15          1           0        3.777083    1.973385    0.082641
     16          1           0        6.281526    2.082470    0.093743
     17          1           0        7.630011   -0.007323    0.108070
     18          1           0        2.758757   -2.807905    0.020622
     19          1           0        7.769128   -2.489667   -0.023378
 ---------------------------------------------------------------------
                    Distance matrix (angstroms):
                    1          2          3          4          5
     1  N    0.000000
     2  C    1.198663   0.000000
     3  C    2.654353   1.456178   0.000000
     4  C    3.532293   2.462232   1.412882   0.000000
     5  C    4.900832   3.770788   2.455853   1.416212   0.000000
     6  C    5.489191   4.292541   2.837198   2.442076   1.400958
     7  C    5.012800   3.848263   2.501773   2.869603   2.480296
     8  C    3.641597   2.534369   1.453163   2.489617   2.870912
     9  C    3.805392   2.996094   2.534996   3.811298   4.292325
    10  C    5.202149   4.417566   3.822110   4.953785   5.126293
    11  C    6.276148   5.329481   4.394621   5.223678   4.995692
    12  C    6.128648   5.031767   3.816110   4.310021   3.805962
    13  N    6.595895   6.210360   6.090774   7.385388   7.738726
    14  C    5.841811   5.297653   5.010874   6.259011   6.554012
    15  H    3.468204   2.663845   2.175033   1.096928   2.181471
    16  H    5.697100   4.640437   3.445806   2.179081   1.097053
    17  H    6.585757   5.389592   3.934525   3.431745   2.160543
    18  H    3.149567   2.653337   2.772885   4.176230   4.945296
    19  H    7.113511   5.978997   4.669510   4.910331   4.112217
                    6          7          8          9         10
     6  C    0.000000
     7  C    1.438634   0.000000
     8  C    2.487990   1.457020   0.000000
     9  C    3.773169   2.465281   1.422340   0.000000
    10  C    4.255489   2.816904   2.465697   1.422543   0.000000
    11  C    3.829367   2.515993   2.942609   2.525390   1.437848
    12  C    2.523662   1.441050   2.498159   2.820669   2.392653
    13  N    6.917336   5.479009   4.941011   3.576701   2.662994
    14  C    5.719566   4.281315   3.788462   2.477571   1.465925
    15  H    3.433704   3.966522   3.481416   4.704500   5.938322
    16  H    2.169930   3.471735   3.967941   5.389275   6.193496
    17  H    1.097413   2.192611   3.482193   4.653607   4.888772
    18  H    4.663109   3.466446   2.180422   1.100945   2.199969
    19  H    2.716787   2.171346   3.475356   3.920133   3.405532
                   11         12         13         14         15
    11  C    0.000000
    12  C    1.405392   0.000000
    13  N    3.554078   4.874749   0.000000
    14  C    2.487696   3.735509   1.198009   0.000000
    15  H    6.297696   5.406886   8.265528   7.178668   0.000000
    16  H    5.962757   4.690934   8.820841   7.632038   2.506842
    17  H    4.159857   2.756422   7.517975   6.335026   4.332309
    18  H    3.514546   3.921338   3.558818   2.700274   4.888923
    19  H    2.166084   1.101264   5.718407   4.643210   5.988864
                   16         17         18         19
    16  H    0.000000
    17  H    2.487137   0.000000
    18  H    6.027522   5.619611   0.000000
    19  H    4.809482   2.489712   5.020660   0.000000
 Stoichiometry    C12H5N2(1-)
 Framework group  C1[X(C12H5N2)]
 Deg. of freedom    51
 Full point group                 C1      NOp   1
 Largest Abelian subgroup         C1      NOp   1
 Largest concise Abelian subgroup C1      NOp   1
                         Standard orientation:                         
 ---------------------------------------------------------------------
 Center     Atomic      Atomic             Coordinates (Angstroms)
 Number     Number       Type             X           Y           Z
 ---------------------------------------------------------------------
      1          7           0        1.659250    3.441786   -0.031511
      2          6           0        1.607235    2.244465   -0.008971
      3          6           0        1.598444    0.788380    0.004968
      4          6           0        2.839237    0.112876    0.024011
      5          6           0        2.886319   -1.302537    0.030538
      6          6           0        1.699467   -2.046891    0.031899
      7          6           0        0.408522   -1.412280    0.011960
      8          6           0        0.350765    0.043487   -0.005811
      9          6           0       -0.932706    0.655619   -0.038163
     10          6           0       -2.107611   -0.146092   -0.016095
     11          6           0       -2.100716   -1.583357   -0.056428
     12          6           0       -0.820406   -2.162809   -0.043409
     13          7           0       -4.486578    1.048579    0.053317
     14          6           0       -3.405678    0.531997    0.048363
     15          1           0        3.771191    0.691406    0.028066
     16          1           0        3.856853   -1.813958    0.036629
     17          1           0        1.754526   -3.142888    0.040418
     18          1           0       -1.000079    1.754399   -0.053139
     19          1           0       -0.728423   -3.258670   -0.101791
 ---------------------------------------------------------------------
 Rotational constants (GHZ):      1.0837029      0.5523606      0.3659883
 Standard basis: STO-3G (5D, 7F)
 There are    75 symmetry adapted cartesian basis functions of A   symmetry.
 There are    75 symmetry adapted basis functions of A   symmetry.
    75 basis functions,   225 primitive gaussians,    75 cartesian basis functions
    46 alpha electrons       46 beta electrons
       nuclear repulsion energy       695.7587366879 Hartrees.
 NAtoms=   19 NActive=   19 NUniq=   19 SFac= 1.00D+00 NAtFMM=   60 NAOKFM=F Big=F
 Integral buffers will be    131072 words long.
 Raffenetti 2 integral format.
 Two-electron integral symmetry is turned on.
 One-electron integrals computed using PRISM.
 NBasis=    75 RedAO= T EigKep=  1.75D-01  NBF=    75
 NBsUse=    75 1.00D-06 EigRej= -1.00D+00 NBFU=    75
 Initial guess from the checkpoint file:  "/tmp/bnp.472695.sequoia/Gau-17319.chk"
 B after Tr=     0.000000    0.000000    0.000000
         Rot=    0.999997    0.000081   -0.000067    0.002441 Ang=   0.28 deg.
 ExpMin= 1.69D-01 ExpMax= 9.91D+01 ExpMxC= 9.91D+01 IAcc=1 IRadAn=         1 AccDes= 0.00D+00
 Harris functional with IExCor=  402 and IRadAn=       1 diagonalized for initial guess.
 HarFok:  IExCor=  402 AccDes= 0.00D+00 IRadAn=         1 IDoV= 1 UseB2=F ITyADJ=14
 ICtDFT=  3500011 ScaDFX=  1.000000  1.000000  1.000000  1.000000
 FoFCou: FMM=F IPFlag=           0 FMFlag=      100000 FMFlg1=           0
         NFxFlg=           0 DoJE=T BraDBF=F KetDBF=T FulRan=T
         wScrn=  0.000000 ICntrl=     500 IOpCl=  0 I1Cent=   200000004 NGrid=           0
         NMat0=    1 NMatS0=      1 NMatT0=    0 NMatD0=    1 NMtDS0=    0 NMtDT0=    0
 Petite list used in FoFCou.
 Keep R1 ints in memory in canonical form, NReq=4993994.
 Requested convergence on RMS density matrix=1.00D-08 within 128 cycles.
 Requested convergence on MAX density matrix=1.00D-06.
 Requested convergence on             energy=1.00D-06.
 No special actions if energy rises.
 Integral accuracy reduced to 1.0D-05 until final iterations.
 Initial convergence to 1.0D-05 achieved.  Increase integral accuracy.
 SCF Done:  E(RB3LYP) =  -562.511807066     A.U. after   18 cycles
            NFock= 18  Conv=0.38D-08     -V/T= 2.0141
 Calling FoFJK, ICntrl=      2127 FMM=F ISym2X=0 I1Cent= 0 IOpClX= 0 NMat=1 NMatS=1 NMatT=0.
 ***** Axes restored to original set *****
 -------------------------------------------------------------------
 Center     Atomic                   Forces (Hartrees/Bohr)
 Number     Number              X              Y              Z
 -------------------------------------------------------------------
      1        7          -0.004829072   -0.000159986    0.000018808
      2        6           0.002347730   -0.000851579   -0.000025853
      3        6           0.003719655    0.007926238   -0.000258961
      4        6          -0.004568066   -0.003213431    0.000417882
      5        6           0.006764724   -0.006451253   -0.001230723
      6        6          -0.007025174    0.008060708    0.001729182
      7        6           0.011360471    0.003788599    0.004770639
      8        6          -0.000203240   -0.003414277    0.000215990
      9        6          -0.005881726   -0.009966888   -0.002695977
     10        6          -0.004715125    0.025282229    0.002875873
     11        6           0.020450326   -0.018438518   -0.003962156
     12        6          -0.014501977   -0.001988097    0.000381351
     13        7          -0.002452519   -0.004271329    0.000112899
     14        6          -0.002271675   -0.001973912    0.003226933
     15        1          -0.000845943    0.000191814    0.000266842
     16        1          -0.000433125    0.000805122   -0.000728224
     17        1           0.001381438   -0.001646792    0.000954868
     18        1           0.000273994    0.001697243   -0.002820662
     19        1           0.001429304    0.004624109   -0.003248712
 -------------------------------------------------------------------
 Cartesian Forces:  Max     0.025282229 RMS     0.006512283

 GradGradGradGradGradGradGradGradGradGradGradGradGradGradGradGradGradGrad
 Berny optimization.
 Using GEDIIS/GDIIS optimizer.
 FormGI is forming the generalized inverse of G from B-inverse, IUseBI=4.
 Internal  Forces:  Max     0.015580226 RMS     0.003522518
 Search for a local minimum.
 Step number   2 out of a maximum of  102
 All quantities printed in internal units (Hartrees-Bohrs-Radians)
 Mixed Optimization -- RFO/linear search
 Update second derivatives using D2CorX and points    1    2
 DE= -3.01D-02 DEPred=-3.23D-02 R= 9.33D-01
 TightC=F SS=  1.41D+00  RLast= 3.64D-01 DXNew= 5.0454D-01 1.0905D+00
 Trust test= 9.33D-01 RLast= 3.64D-01 DXMaxT set to 5.05D-01
 ITU=  1  0
 Use linear search instead of GDIIS.
     Eigenvalues ---    0.01599   0.01604   0.01857   0.01868   0.01922
     Eigenvalues ---    0.01944   0.01973   0.02038   0.02067   0.02109
     Eigenvalues ---    0.02112   0.02129   0.02147   0.02166   0.02202
     Eigenvalues ---    0.02219   0.04862   0.04921   0.15848   0.15998
     Eigenvalues ---    0.15999   0.16000   0.16034   0.21897   0.22104
     Eigenvalues ---    0.23155   0.23503   0.24755   0.24973   0.24998
     Eigenvalues ---    0.25014   0.34753   0.34890   0.34904   0.35070
     Eigenvalues ---    0.35121   0.38671   0.39991   0.40273   0.40456
     Eigenvalues ---    0.40831   0.42986   0.43437   0.45037   0.45229
     Eigenvalues ---    0.45547   0.46586   0.46939   0.50038   1.27644
     Eigenvalues ---    1.33287
 RFO step:  Lambda=-6.22318587D-03 EMin= 1.59869920D-02
 Quartic linear search produced a step of  0.24593.
 Iteration  1 RMS(Cart)=  0.08039436 RMS(Int)=  0.00256989
 Iteration  2 RMS(Cart)=  0.00425018 RMS(Int)=  0.00098565
 Iteration  3 RMS(Cart)=  0.00000615 RMS(Int)=  0.00098564
 Iteration  4 RMS(Cart)=  0.00000001 RMS(Int)=  0.00098564
 Variable       Old X    -DE/DX   Delta X   Delta X   Delta X     New X
                                 (Linear)    (Quad)   (Total)
    R1        2.26514   0.00482   0.01792  -0.01373   0.00420   2.26934
    R2        2.75178   0.00248   0.00889  -0.00180   0.00709   2.75887
    R3        2.66996  -0.00462   0.00443  -0.01696  -0.01257   2.65739
    R4        2.74608   0.00267   0.01494  -0.00774   0.00706   2.75314
    R5        2.67625   0.00343   0.01205  -0.00384   0.00831   2.68456
    R6        2.07289   0.00061   0.00353  -0.00159   0.00193   2.07483
    R7        2.64743  -0.00528   0.00390  -0.01806  -0.01402   2.63341
    R8        2.07313   0.00052   0.00438  -0.00285   0.00153   2.07466
    R9        2.71862   0.00057   0.01652  -0.01596   0.00060   2.71922
   R10        2.07381   0.00129   0.00377   0.00049   0.00426   2.07807
   R11        2.75337   0.00200   0.01740  -0.01324   0.00393   2.75730
   R12        2.72319   0.00120   0.01772  -0.01563   0.00234   2.72553
   R13        2.68783   0.00017   0.00124  -0.00124  -0.00046   2.68738
   R14        2.68822  -0.00443   0.01013  -0.02216  -0.01240   2.67582
   R15        2.08048  -0.00035   0.00472  -0.00623  -0.00151   2.07897
   R16        2.71714   0.01393   0.02317   0.01208   0.03545   2.75259
   R17        2.77020   0.00786   0.01651   0.00600   0.02251   2.79271
   R18        2.65581   0.00475   0.00637   0.00602   0.01289   2.66869
   R19        2.08109   0.00202   0.00628   0.00034   0.00662   2.08771
   R20        2.26391   0.00491   0.01750  -0.01320   0.00430   2.26821
    A1        2.06338   0.00152   0.00279   0.00426   0.00724   2.07062
    A2        2.11493  -0.00197  -0.00201  -0.00742  -0.00925   2.10569
    A3        2.10487   0.00045  -0.00078   0.00317   0.00201   2.10688
    A4        2.10260  -0.00065   0.00054  -0.00464  -0.00424   2.09837
    A5        2.08750  -0.00031  -0.00382   0.00155  -0.00221   2.08529
    A6        2.09307   0.00096   0.00327   0.00309   0.00642   2.09949
    A7        2.09770   0.00079   0.00193   0.00078   0.00274   2.10044
    A8        2.08904  -0.00118  -0.00226  -0.00480  -0.00708   2.08196
    A9        2.09645   0.00039   0.00033   0.00402   0.00433   2.10078
   A10        2.12447   0.00141   0.00284   0.00289   0.00566   2.13013
   A11        2.08075   0.00108   0.00296   0.00687   0.00980   2.09055
   A12        2.07794  -0.00249  -0.00581  -0.00988  -0.01573   2.06221
   A13        2.06744  -0.00174  -0.00691  -0.00054  -0.00782   2.05963
   A14        2.13654   0.00352   0.01111   0.00680   0.01801   2.15454
   A15        2.07842  -0.00183  -0.00439  -0.00833  -0.01442   2.06399
   A16        2.06921  -0.00026   0.00237  -0.00184   0.00121   2.07042
   A17        2.15835  -0.00044  -0.00256   0.00269   0.00148   2.15983
   A18        2.05561   0.00070   0.00019  -0.00084  -0.00268   2.05293
   A19        2.09715  -0.00262  -0.00478  -0.01166  -0.01919   2.07796
   A20        2.07722  -0.00048  -0.00580   0.00124  -0.00373   2.07349
   A21        2.10847   0.00308   0.01049   0.00953   0.02109   2.12956
   A22        2.16392   0.01016   0.01754   0.02993   0.04481   2.20873
   A23        2.06160  -0.00745  -0.01374  -0.02108  -0.03359   2.02801
   A24        2.05766  -0.00271  -0.00380  -0.00889  -0.01149   2.04618
   A25        2.00011  -0.01558  -0.02365  -0.04981  -0.07494   1.92517
   A26        2.16823   0.00891   0.01437   0.03064   0.04387   2.21210
   A27        2.03652  -0.00905  -0.01800  -0.03768  -0.05519   1.98133
   A28        2.07817   0.00014   0.00356   0.00667   0.01063   2.08881
   A29        3.17903  -0.00074   0.00789  -0.05495  -0.04706   3.13197
   A30        3.17712  -0.00094   0.00834  -0.03209  -0.02375   3.15337
   A31        3.13241   0.00025  -0.00217   0.01793   0.01576   3.14817
   A32        3.09374   0.00015  -0.01163   0.01872   0.00709   3.10083
    D1       -3.13538   0.00002   0.00159  -0.00142   0.00010  -3.13528
    D2        0.00022  -0.00007   0.00012  -0.00355  -0.00344  -0.00322
    D3        0.00194   0.00005   0.00050   0.00206   0.00239   0.00433
    D4        3.13754  -0.00004  -0.00098  -0.00007  -0.00114   3.13640
    D5       -3.13935   0.00018   0.00053   0.00659   0.00735  -3.13200
    D6        0.00671   0.00007   0.00161   0.00301   0.00431   0.01103
    D7        0.00665   0.00013   0.00165   0.00298   0.00497   0.01162
    D8       -3.13047   0.00003   0.00273  -0.00060   0.00193  -3.12854
    D9       -0.01137  -0.00042  -0.00288  -0.01384  -0.01681  -0.02818
   D10        3.13243  -0.00037  -0.00233  -0.01287  -0.01516   3.11727
   D11        3.13623  -0.00032  -0.00140  -0.01169  -0.01321   3.12302
   D12       -0.00315  -0.00028  -0.00085  -0.01073  -0.01156  -0.01472
   D13        0.01213   0.00059   0.00309   0.02073   0.02402   0.03615
   D14       -3.13801   0.00015   0.00086   0.00490   0.00592  -3.13208
   D15       -3.13168   0.00055   0.00253   0.01975   0.02234  -3.10934
   D16        0.00137   0.00010   0.00031   0.00392   0.00424   0.00561
   D17       -0.00335  -0.00039  -0.00089  -0.01533  -0.01613  -0.01948
   D18        3.09516  -0.00193  -0.01147  -0.07172  -0.08262   3.01254
   D19       -3.13641   0.00004   0.00133   0.00039   0.00156  -3.13485
   D20       -0.03791  -0.00151  -0.00925  -0.05600  -0.06492  -0.10283
   D21       -0.00593   0.00002  -0.00145   0.00339   0.00158  -0.00435
   D22        3.13146   0.00012  -0.00247   0.00677   0.00444   3.13590
   D23       -3.10590   0.00138   0.00877   0.05748   0.06374  -3.04216
   D24        0.03149   0.00148   0.00775   0.06086   0.06660   0.09809
   D25        3.13463  -0.00092  -0.00165  -0.04238  -0.04462   3.09001
   D26       -0.03208  -0.00150  -0.00783  -0.05977  -0.06692  -0.09900
   D27       -0.05031  -0.00248  -0.01230  -0.09892  -0.11110  -0.16142
   D28        3.06617  -0.00305  -0.01848  -0.11632  -0.13341   2.93276
   D29       -3.11666   0.00114   0.00607   0.04915   0.05262  -3.06404
   D30       -0.00330   0.00016  -0.00092   0.01365   0.01148   0.00818
   D31        0.02937   0.00104   0.00714   0.04560   0.04960   0.07897
   D32       -3.14046   0.00006   0.00016   0.01010   0.00846  -3.13199
   D33       -0.07964  -0.00376  -0.01951  -0.13186  -0.15320  -0.23284
   D34        3.06468  -0.00317  -0.01891  -0.11111  -0.13018   2.93449
   D35        3.09070  -0.00270  -0.01240  -0.09557  -0.11025   2.98045
   D36       -0.04817  -0.00211  -0.01181  -0.07482  -0.08723  -0.13541
   D37        0.06068   0.00272   0.01493   0.09492   0.11101   0.17169
   D38       -3.08363   0.00213   0.01434   0.07420   0.08775  -2.99587
   D39        0.00508   0.00067   0.00116   0.02260   0.02606   0.03114
   D40       -3.11084   0.00137   0.00748   0.04097   0.05043  -3.06041
         Item               Value     Threshold  Converged?
 Maximum Force            0.015580     0.000450     NO 
 RMS     Force            0.003523     0.000300     NO 
 Maximum Displacement     0.400591     0.001800     NO 
 RMS     Displacement     0.080976     0.001200     NO 
 Predicted change in Energy=-3.827612D-03
 GradGradGradGradGradGradGradGradGradGradGradGradGradGradGradGradGradGrad

                          Input orientation:                          
 ---------------------------------------------------------------------
 Center     Atomic      Atomic             Coordinates (Angstroms)
 Number     Number       Type             X           Y           Z
 ---------------------------------------------------------------------
      1          7           0        1.046133   -0.237950   -0.022383
      2          6           0        2.246412   -0.213540    0.006876
      3          6           0        3.705536   -0.197399    0.052605
      4          6           0        4.364342    1.043633    0.110027
      5          6           0        5.783367    1.098974    0.147927
      6          6           0        6.533612   -0.075280    0.162440
      7          6           0        5.919206   -1.374772    0.096077
      8          6           0        4.462867   -1.441885    0.036512
      9          6           0        3.864557   -2.729956   -0.036027
     10          6           0        4.689721   -3.877414    0.050300
     11          6           0        6.141724   -3.912020   -0.060146
     12          6           0        6.665651   -2.600668   -0.046051
     13          7           0        3.440476   -6.226157    0.354800
     14          6           0        3.994984   -5.167699    0.241378
     15          1           0        3.773655    1.969131    0.116220
     16          1           0        6.282329    2.076663    0.169349
     17          1           0        7.631298   -0.021642    0.200886
     18          1           0        2.768201   -2.802792   -0.090987
     19          1           0        7.748279   -2.442467   -0.199023
 ---------------------------------------------------------------------
                    Distance matrix (angstroms):
                    1          2          3          4          5
     1  N    0.000000
     2  C    1.200883   0.000000
     3  C    2.660768   1.459929   0.000000
     4  C    3.559564   2.465106   1.406230   0.000000
     5  C    4.925216   3.775266   2.450929   1.420610   0.000000
     6  C    5.492999   4.292249   2.832842   2.441403   1.393538
     7  C    5.005320   3.853029   2.507675   2.875149   2.478015
     8  C    3.623120   2.534242   1.456899   2.488556   2.865675
     9  C    3.762153   2.992087   2.539092   3.809343   4.286768
    10  C    5.150409   4.404046   3.809349   4.932154   5.096080
    11  C    6.282139   5.371844   4.443663   5.267499   5.028098
    12  C    6.096062   5.023032   3.814146   4.312924   3.808333
    13  N    6.460168   6.139903   6.042144   7.332346   7.693470
    14  C    5.750453   5.258915   4.982298   6.223690   6.517532
    15  H    3.511381   2.666173   2.168534   1.097951   2.190234
    16  H    5.728171   4.643281   3.438729   2.179300   1.097861
    17  H    6.592498   5.391796   3.932491   3.437452   2.161813
    18  H    3.090087   2.643117   2.772596   4.169300   4.936809
    19  H    7.057609   5.939785   4.631136   4.868207   4.064856
                    6          7          8          9         10
     6  C    0.000000
     7  C    1.438951   0.000000
     8  C    2.484241   1.459100   0.000000
     9  C    3.769689   2.464865   1.422099   0.000000
    10  C    4.227143   2.788718   2.446110   1.415983   0.000000
    11  C    3.863120   2.551773   2.988222   2.565804   1.456609
    12  C    2.537417   1.442290   2.490351   2.804094   2.354499
    13  N    6.887510   5.454079   4.902638   3.543446   2.677672
    14  C    5.690658   4.255588   3.760661   2.456940   1.477837
    15  H    3.434984   3.973095   3.480862   4.702432   5.918244
    16  H    2.166576   3.471258   3.963366   5.384366   6.164545
    17  H    1.099668   2.184767   3.476070   4.645367   4.852065
    18  H    4.656379   3.464544   2.177204   1.100146   2.206130
    19  H    2.685079   2.138356   3.442466   3.897758   3.387627
                   11         12         13         14         15
    11  C    0.000000
    12  C    1.412212   0.000000
    13  N    3.581083   4.868943   0.000000
    14  C    2.505222   3.715471   1.200283   0.000000
    15  H    6.342460   5.410456   8.205528   7.141358   0.000000
    16  H    5.994728   4.697953   8.777662   7.597231   2.511540
    17  H    4.173968   2.764928   7.488837   6.301295   4.341862
    18  H    3.551337   3.902946   3.517117   2.684818   4.881099
    19  H    2.181717   1.104768   5.760226   4.659191   5.946361
                   16         17         18         19
    16  H    0.000000
    17  H    2.494714   0.000000
    18  H    6.018800   5.609786   0.000000
    19  H    4.765212   2.456421   4.994265   0.000000
 Stoichiometry    C12H5N2(1-)
 Framework group  C1[X(C12H5N2)]
 Deg. of freedom    51
 Full point group                 C1      NOp   1
 Largest Abelian subgroup         C1      NOp   1
 Largest concise Abelian subgroup C1      NOp   1
                         Standard orientation:                         
 ---------------------------------------------------------------------
 Center     Atomic      Atomic             Coordinates (Angstroms)
 Number     Number       Type             X           Y           Z
 ---------------------------------------------------------------------
      1          7           0        1.554268    3.458547   -0.077089
      2          6           0        1.578951    2.258282   -0.047532
      3          6           0        1.595274    0.799165   -0.001644
      4          6           0        2.835708    0.141089    0.074150
      5          6           0        2.891319   -1.277906    0.112795
      6          6           0        1.717423   -2.028845    0.109845
      7          6           0        0.418695   -1.415202    0.024241
      8          6           0        0.351613    0.041100   -0.036239
      9          6           0       -0.935595    0.638654   -0.127849
     10          6           0       -2.083719   -0.187193   -0.058599
     11          6           0       -2.115824   -1.639210   -0.169621
     12          6           0       -0.804515   -2.162363   -0.136098
     13          7           0       -4.437460    1.060646    0.211084
     14          6           0       -3.377107    0.506770    0.113350
     15          1           0        3.760663    0.732322    0.094104
     16          1           0        3.868878   -1.776292    0.148694
     17          1           0        1.771133   -3.126502    0.149026
     18          1           0       -1.008255    1.734969   -0.183828
     19          1           0       -0.643422   -3.244888   -0.286762
 ---------------------------------------------------------------------
 Rotational constants (GHZ):      1.0724825      0.5597717      0.3690085
 Standard basis: STO-3G (5D, 7F)
 There are    75 symmetry adapted cartesian basis functions of A   symmetry.
 There are    75 symmetry adapted basis functions of A   symmetry.
    75 basis functions,   225 primitive gaussians,    75 cartesian basis functions
    46 alpha electrons       46 beta electrons
       nuclear repulsion energy       695.9704118592 Hartrees.
 NAtoms=   19 NActive=   19 NUniq=   19 SFac= 1.00D+00 NAtFMM=   60 NAOKFM=F Big=F
 Integral buffers will be    131072 words long.
 Raffenetti 2 integral format.
 Two-electron integral symmetry is turned on.
 One-electron integrals computed using PRISM.
 NBasis=    75 RedAO= T EigKep=  1.76D-01  NBF=    75
 NBsUse=    75 1.00D-06 EigRej= -1.00D+00 NBFU=    75
 Initial guess from the checkpoint file:  "/tmp/bnp.472695.sequoia/Gau-17319.chk"
 B after Tr=     0.000000    0.000000    0.000000
         Rot=    0.999989    0.000321   -0.000208   -0.004590 Ang=   0.53 deg.
 ExpMin= 1.69D-01 ExpMax= 9.91D+01 ExpMxC= 9.91D+01 IAcc=1 IRadAn=         1 AccDes= 0.00D+00
 Harris functional with IExCor=  402 and IRadAn=       1 diagonalized for initial guess.
 HarFok:  IExCor=  402 AccDes= 0.00D+00 IRadAn=         1 IDoV= 1 UseB2=F ITyADJ=14
 ICtDFT=  3500011 ScaDFX=  1.000000  1.000000  1.000000  1.000000
 FoFCou: FMM=F IPFlag=           0 FMFlag=      100000 FMFlg1=           0
         NFxFlg=           0 DoJE=T BraDBF=F KetDBF=T FulRan=T
         wScrn=  0.000000 ICntrl=     500 IOpCl=  0 I1Cent=   200000004 NGrid=           0
         NMat0=    1 NMatS0=      1 NMatT0=    0 NMatD0=    1 NMtDS0=    0 NMtDT0=    0
 Petite list used in FoFCou.
 Keep R1 ints in memory in canonical form, NReq=4993994.
 Requested convergence on RMS density matrix=1.00D-08 within 128 cycles.
 Requested convergence on MAX density matrix=1.00D-06.
 Requested convergence on             energy=1.00D-06.
 No special actions if energy rises.
 Integral accuracy reduced to 1.0D-05 until final iterations.
 Initial convergence to 1.0D-05 achieved.  Increase integral accuracy.
 SCF Done:  E(RB3LYP) =  -562.515537156     A.U. after   16 cycles
            NFock= 16  Conv=0.92D-08     -V/T= 2.0141
 Calling FoFJK, ICntrl=      2127 FMM=F ISym2X=0 I1Cent= 0 IOpClX= 0 NMat=1 NMatS=1 NMatT=0.
 ***** Axes restored to original set *****
 -------------------------------------------------------------------
 Center     Atomic                   Forces (Hartrees/Bohr)
 Number     Number              X              Y              Z
 -------------------------------------------------------------------
      1        7           0.001004162    0.001468782   -0.000488325
      2        6          -0.001617455   -0.003591077    0.000968281
      3        6           0.001149790    0.002260184   -0.000373547
      4        6          -0.000565790   -0.000048511   -0.000485534
      5        6           0.000693004    0.001240454    0.000651731
      6        6           0.000271418   -0.001864225    0.000394454
      7        6          -0.000250386    0.002322716   -0.000990237
      8        6          -0.000679907    0.000871480   -0.000508880
      9        6          -0.001759030   -0.001814187    0.001757438
     10        6          -0.003348263   -0.000589274    0.001830405
     11        6           0.002155201    0.002607347   -0.000329964
     12        6           0.003090956    0.000212866   -0.001362986
     13        7           0.000678373    0.000781070    0.000945136
     14        6          -0.002102465   -0.002402896   -0.001520317
     15        1           0.000453894   -0.000007455    0.000082793
     16        1          -0.000195469   -0.000121947    0.000045825
     17        1          -0.000206997   -0.000037062    0.000227119
     18        1           0.000840378   -0.000494554   -0.001123844
     19        1           0.000388585   -0.000793711    0.000280452
 -------------------------------------------------------------------
 Cartesian Forces:  Max     0.003591077 RMS     0.001365922

 GradGradGradGradGradGradGradGradGradGradGradGradGradGradGradGradGradGrad
 Berny optimization.
 Using GEDIIS/GDIIS optimizer.
 FormGI is forming the generalized inverse of G from B-inverse, IUseBI=4.
 Internal  Forces:  Max     0.003737450 RMS     0.000961915
 Search for a local minimum.
 Step number   3 out of a maximum of  102
 All quantities printed in internal units (Hartrees-Bohrs-Radians)
 Mixed Optimization -- En-DIIS/RFO-DIIS
 Update second derivatives using D2CorX and points    2    3
 DE= -3.73D-03 DEPred=-3.83D-03 R= 9.75D-01
 TightC=F SS=  1.41D+00  RLast= 4.11D-01 DXNew= 8.4853D-01 1.2341D+00
 Trust test= 9.75D-01 RLast= 4.11D-01 DXMaxT set to 8.49D-01
 ITU=  1  1  0
 Use linear search instead of GDIIS.
     Eigenvalues ---    0.01496   0.01599   0.01855   0.01866   0.01922
     Eigenvalues ---    0.01926   0.01988   0.02037   0.02092   0.02113
     Eigenvalues ---    0.02130   0.02132   0.02160   0.02181   0.02202
     Eigenvalues ---    0.02429   0.04907   0.04919   0.15896   0.15979
     Eigenvalues ---    0.15999   0.16002   0.16097   0.22039   0.22533
     Eigenvalues ---    0.23056   0.23448   0.24705   0.24921   0.24999
     Eigenvalues ---    0.25602   0.34742   0.34888   0.34913   0.35048
     Eigenvalues ---    0.35121   0.38601   0.39416   0.40151   0.40278
     Eigenvalues ---    0.40902   0.43084   0.43300   0.44149   0.45173
     Eigenvalues ---    0.45543   0.46539   0.46969   0.50174   1.27644
     Eigenvalues ---    1.33296
 RFO step:  Lambda=-1.06849842D-03 EMin= 1.49618260D-02
 Quartic linear search produced a step of -0.04413.
 Iteration  1 RMS(Cart)=  0.04700825 RMS(Int)=  0.00357466
 Iteration  2 RMS(Cart)=  0.00362890 RMS(Int)=  0.00004701
 Iteration  3 RMS(Cart)=  0.00001507 RMS(Int)=  0.00004636
 Iteration  4 RMS(Cart)=  0.00000000 RMS(Int)=  0.00004636
 Variable       Old X    -DE/DX   Delta X   Delta X   Delta X     New X
                                 (Linear)    (Quad)   (Total)
    R1        2.26934  -0.00102  -0.00019  -0.00082  -0.00100   2.26834
    R2        2.75887   0.00062  -0.00031   0.00237   0.00206   2.76092
    R3        2.65739   0.00054   0.00055  -0.00130  -0.00073   2.65666
    R4        2.75314  -0.00005  -0.00031   0.00049   0.00018   2.75332
    R5        2.68456   0.00056  -0.00037   0.00223   0.00188   2.68644
    R6        2.07483  -0.00025  -0.00009  -0.00049  -0.00057   2.07425
    R7        2.63341   0.00059   0.00062  -0.00160  -0.00098   2.63242
    R8        2.07466  -0.00020  -0.00007  -0.00046  -0.00052   2.07413
    R9        2.71922  -0.00105  -0.00003  -0.00300  -0.00305   2.71618
   R10        2.07807  -0.00020  -0.00019   0.00007  -0.00012   2.07795
   R11        2.75730   0.00171  -0.00017   0.00346   0.00326   2.76056
   R12        2.72553   0.00106  -0.00010   0.00174   0.00163   2.72716
   R13        2.68738   0.00300   0.00002   0.00653   0.00656   2.69394
   R14        2.67582  -0.00047   0.00055  -0.00370  -0.00313   2.67269
   R15        2.07897  -0.00075   0.00007  -0.00256  -0.00249   2.07649
   R16        2.75259   0.00374  -0.00156   0.01310   0.01153   2.76412
   R17        2.79271   0.00201  -0.00099   0.00809   0.00709   2.79980
   R18        2.66869   0.00007  -0.00057   0.00228   0.00170   2.67039
   R19        2.08771   0.00023  -0.00029   0.00156   0.00126   2.08897
   R20        2.26821  -0.00091  -0.00019  -0.00070  -0.00089   2.26732
    A1        2.07062   0.00106  -0.00032   0.00525   0.00492   2.07553
    A2        2.10569  -0.00148   0.00041  -0.00725  -0.00686   2.09883
    A3        2.10688   0.00042  -0.00009   0.00202   0.00190   2.10878
    A4        2.09837   0.00017   0.00019   0.00025   0.00041   2.09878
    A5        2.08529   0.00031   0.00010   0.00163   0.00170   2.08699
    A6        2.09949  -0.00048  -0.00028  -0.00177  -0.00208   2.09741
    A7        2.10044  -0.00042  -0.00012  -0.00131  -0.00145   2.09899
    A8        2.08196   0.00009   0.00031  -0.00107  -0.00076   2.08120
    A9        2.10078   0.00034  -0.00019   0.00240   0.00221   2.10300
   A10        2.13013   0.00010  -0.00025   0.00096   0.00066   2.13079
   A11        2.09055  -0.00003  -0.00043   0.00183   0.00142   2.09197
   A12        2.06221  -0.00007   0.00069  -0.00274  -0.00202   2.06019
   A13        2.05963   0.00077   0.00034   0.00208   0.00240   2.06203
   A14        2.15454  -0.00082  -0.00079   0.00105   0.00031   2.15485
   A15        2.06399   0.00008   0.00064  -0.00243  -0.00179   2.06220
   A16        2.07042  -0.00104  -0.00005  -0.00380  -0.00391   2.06652
   A17        2.15983   0.00008  -0.00007   0.00142   0.00136   2.16119
   A18        2.05293   0.00096   0.00012   0.00239   0.00251   2.05544
   A19        2.07796  -0.00030   0.00085  -0.00513  -0.00429   2.07367
   A20        2.07349   0.00074   0.00016   0.00447   0.00460   2.07809
   A21        2.12956  -0.00041  -0.00093   0.00162   0.00064   2.13020
   A22        2.20873  -0.00190  -0.00198  -0.00025  -0.00221   2.20652
   A23        2.02801   0.00057   0.00148  -0.00333  -0.00192   2.02608
   A24        2.04618   0.00132   0.00051   0.00317   0.00360   2.04978
   A25        1.92517   0.00282   0.00331  -0.00265   0.00065   1.92582
   A26        2.21210  -0.00175  -0.00194  -0.00073  -0.00274   2.20936
   A27        1.98133   0.00173   0.00244   0.00015   0.00253   1.98386
   A28        2.08881   0.00004  -0.00047   0.00141   0.00088   2.08969
   A29        3.13197   0.00334   0.00208   0.17680   0.17888   3.31085
   A30        3.15337   0.00054   0.00105   0.00530   0.00635   3.15972
   A31        3.14817  -0.00099  -0.00070  -0.05189  -0.05259   3.09558
   A32        3.10083   0.00200  -0.00031   0.04036   0.04005   3.14088
    D1       -3.13528  -0.00039   0.00000  -0.01684  -0.01688   3.13102
    D2       -0.00322  -0.00009   0.00015  -0.00470  -0.00456  -0.00778
    D3        0.00433  -0.00012  -0.00011  -0.00438  -0.00446  -0.00013
    D4        3.13640   0.00018   0.00005   0.00776   0.00786  -3.13893
    D5       -3.13200  -0.00003  -0.00032   0.00074   0.00038  -3.13162
    D6        0.01103  -0.00022  -0.00019  -0.01055  -0.01076   0.00027
    D7        0.01162  -0.00030  -0.00022  -0.01198  -0.01222  -0.00060
    D8       -3.12854  -0.00050  -0.00009  -0.02328  -0.02336   3.13128
    D9       -0.02818   0.00035   0.00074   0.01116   0.01191  -0.01627
   D10        3.11727   0.00023   0.00067   0.00713   0.00780   3.12507
   D11        3.12302   0.00004   0.00058  -0.00110  -0.00050   3.12252
   D12       -0.01472  -0.00008   0.00051  -0.00513  -0.00461  -0.01933
   D13        0.03615  -0.00015  -0.00106  -0.00109  -0.00216   0.03399
   D14       -3.13208  -0.00004  -0.00026   0.00077   0.00048  -3.13160
   D15       -3.10934  -0.00003  -0.00099   0.00297   0.00199  -3.10735
   D16        0.00561   0.00008  -0.00019   0.00483   0.00464   0.01025
[...]
 ! D24   D(12,7,8,9)             7.4485         -DE/DX =    0.0                 !
 ! D25   D(6,7,12,11)          173.5054         -DE/DX =    0.0                 !
 ! D26   D(6,7,12,19)           -8.5188         -DE/DX =    0.0                 !
 ! D27   D(8,7,12,11)          -12.0866         -DE/DX =    0.0                 !
 ! D28   D(8,7,12,19)          165.8892         -DE/DX =    0.0                 !
 ! D29   D(3,8,9,10)          -173.8013         -DE/DX =    0.0                 !
 ! D30   D(3,8,9,18)             2.9583         -DE/DX =    0.0                 !
 ! D31   D(7,8,9,10)             5.407          -DE/DX =    0.0                 !
 ! D32   D(7,8,9,18)          -177.8334         -DE/DX =    0.0                 !
 ! D33   D(8,9,10,11)          -16.1434         -DE/DX =    0.0                 !
 ! D34   D(8,9,10,14)          165.6967         -DE/DX =    0.0                 !
 ! D35   D(18,9,10,11)         167.2018         -DE/DX =    0.0                 !
 ! D36   D(18,9,10,14)         -10.9581         -DE/DX =    0.0                 !
 ! D37   D(9,10,11,12)          11.7542         -DE/DX =    0.0                 !
 ! D38   D(14,10,11,12)       -170.104          -DE/DX =    0.0                 !
 ! D39   D(10,11,12,7)           2.7627         -DE/DX =    0.0                 !
 ! D40   D(10,11,12,19)       -175.1114         -DE/DX =    0.0                 !
 --------------------------------------------------------------------------------
 GradGradGradGradGradGradGradGradGradGradGradGradGradGradGradGradGradGrad

                          Input orientation:                          
 ---------------------------------------------------------------------
 Center     Atomic      Atomic             Coordinates (Angstroms)
 Number     Number       Type             X           Y           Z
 ---------------------------------------------------------------------
      1          7           0        1.048584   -0.205907   -0.081444
      2          6           0        2.247651   -0.220606   -0.024717
      3          6           0        3.706938   -0.200427    0.035461
      4          6           0        4.364121    1.040733    0.128177
      5          6           0        5.781137    1.097593    0.194392
      6          6           0        6.532295   -0.079022    0.183348
      7          6           0        5.920822   -1.372064    0.067718
      8          6           0        4.462281   -1.445588    0.006931
      9          6           0        3.858820   -2.735187   -0.060653
     10          6           0        4.682895   -3.882027    0.050731
     11          6           0        6.131757   -3.896791   -0.099518
     12          6           0        6.669347   -2.597102   -0.109516
     13          7           0        3.461295   -6.223593    0.494720
     14          6           0        4.001510   -5.169543    0.301968
     15          1           0        3.773597    1.965818    0.149120
     16          1           0        6.277833    2.074542    0.252855
     17          1           0        7.628784   -0.026610    0.242284
     18          1           0        2.765233   -2.807976   -0.143220
     19          1           0        7.747448   -2.449486   -0.297859
 ---------------------------------------------------------------------
                    Distance matrix (angstroms):
                    1          2          3          4          5
     1  N    0.000000
     2  C    1.200498   0.000000
     3  C    2.660929   1.460667   0.000000
     4  C    3.548357   2.468562   1.407467   0.000000
     5  C    4.916529   3.777722   2.452023   1.419702   0.000000
     6  C    5.491567   4.292029   2.831828   2.440876   1.395988
     7  C    5.012073   3.850530   2.505006   2.872032   2.476846
     8  C    3.632898   2.531041   1.456634   2.491210   2.870939
     9  C    3.780888   2.986682   2.541125   3.814257   4.295411
    10  C    5.171029   4.397966   3.808793   4.933678   5.101313
    11  C    6.281847   5.348478   4.422791   5.249336   5.015296
    12  C    6.108321   5.020590   3.813258   4.313283   3.812093
    13  N    6.508892   6.146429   6.045642   7.329385   7.685807
    14  C    5.788303   5.260677   4.984969   6.223280   6.515799
    15  H    3.492169   2.671924   2.170248   1.097696   2.187711
    16  H    5.714652   4.646194   3.439802   2.178669   1.097521
    17  H    6.590598   5.391244   3.931140   3.436607   2.163313
    18  H    3.117926   2.641290   2.778137   4.176441   4.946021
    19  H    7.067903   5.940562   4.636280   4.879553   4.085396
                    6          7          8          9         10
     6  C    0.000000
     7  C    1.435002   0.000000
     8  C    2.486681   1.461657   0.000000
     9  C    3.776536   2.475164   1.425412   0.000000
    10  C    4.230924   2.798689   2.446799   1.416597   0.000000
    11  C    3.849131   2.539037   2.967639   2.552857   1.456707
    12  C    2.538756   1.446520   2.492125   2.814342   2.371224
    13  N    6.876318   5.456091   4.906042   3.554637   2.678127
    14  C    5.686154   4.261393   3.763934   2.465349   1.478210
    15  H    3.434087   3.969717   3.483129   4.706454   5.918934
    16  H    2.169658   3.469989   3.968377   5.392903   6.169715
    17  H    1.099322   2.181251   3.477877   4.651966   4.855841
    18  H    4.663110   3.473337   2.181426   1.099111   2.206497
    19  H    2.706891   2.151987   3.448627   3.906318   3.400761
                   11         12         13         14         15
    11  C    0.000000
    12  C    1.406519   0.000000
    13  N    3.591448   4.879359   0.000000
    14  C    2.513770   3.728824   1.200003   0.000000
    15  H    6.323996   5.410406   8.202647   7.140635   0.000000
    16  H    5.983504   4.702005   8.766437   7.593472   2.508740
    17  H    4.163679   2.766173   7.472235   6.293682   4.340612
    18  H    3.538490   3.909950   3.543714   2.702512   4.887879
    19  H    2.178185   1.104339   5.765690   4.668035   5.957028
                   16         17         18         19
    16  H    0.000000
    17  H    2.498003   0.000000
    18  H    6.027786   5.615936   0.000000
    19  H    4.788515   2.485189   4.997488   0.000000
 Stoichiometry    C12H5N2(1-)
 Framework group  C1[X(C12H5N2)]
 Deg. of freedom    51
 Full point group                 C1      NOp   1
 Largest Abelian subgroup         C1      NOp   1
 Largest concise Abelian subgroup C1      NOp   1
                         Standard orientation:                         
 ---------------------------------------------------------------------
 Center     Atomic      Atomic             Coordinates (Angstroms)
 Number     Number       Type             X           Y           Z
 ---------------------------------------------------------------------
      1          7           0        1.603987    3.448990   -0.122169
      2          6           0        1.582664    2.249995   -0.066036
      3          6           0        1.594979    0.790627   -0.005689
      4          6           0        2.830716    0.127950    0.115868
      5          6           0        2.879746   -1.289311    0.183117
      6          6           0        1.700400   -2.035253    0.144441
      7          6           0        0.413129   -1.418052   -0.001245
      8          6           0        0.347496    0.040805   -0.063449
      9          6           0       -0.937491    0.649974   -0.161023
     10          6           0       -2.090253   -0.169028   -0.076623
     11          6           0       -2.107910   -1.617797   -0.227459
     12          6           0       -0.810732   -2.161133   -0.207197
     13          7           0       -4.436127    1.062882    0.312781
     14          6           0       -3.380261    0.518025    0.144600
     15          1           0        3.757661    0.714371    0.158533
     16          1           0        3.852856   -1.790330    0.264290
     17          1           0        1.746571   -3.131969    0.204371
     18          1           0       -1.003494    1.743879   -0.245054
     19          1           0       -0.663525   -3.239859   -0.392251
 ---------------------------------------------------------------------
 Rotational constants (GHZ):      1.0702033      0.5580844      0.3692754

 **********************************************************************

            Population analysis using the SCF density.

 **********************************************************************

 Orbital symmetries:
       Occupied  (A) (A) (A) (A) (A) (A) (A) (A) (A) (A) (A) (A)
                 (A) (A) (A) (A) (A) (A) (A) (A) (A) (A) (A) (A)
                 (A) (A) (A) (A) (A) (A) (A) (A) (A) (A) (A) (A)
                 (A) (A) (A) (A) (A) (A) (A) (A) (A) (A)
       Virtual   (A) (A) (A) (A) (A) (A) (A) (A) (A) (A) (A) (A)
                 (A) (A) (A) (A) (A) (A) (A) (A) (A) (A) (A) (A)
                 (A) (A) (A) (A) (A)
 The electronic state is 1-A.
 Alpha  occ. eigenvalues --  -13.98974 -13.94649  -9.90412  -9.89471  -9.88348
 Alpha  occ. eigenvalues --   -9.87405  -9.87195  -9.87105  -9.86135  -9.85288
 Alpha  occ. eigenvalues --   -9.84909  -9.84085  -9.79867  -9.69418  -0.72488
 Alpha  occ. eigenvalues --   -0.68796  -0.67476  -0.61424  -0.58862  -0.54319
 Alpha  occ. eigenvalues --   -0.50894  -0.45698  -0.42193  -0.40078  -0.34143
 Alpha  occ. eigenvalues --   -0.33323  -0.30376  -0.27805  -0.24035  -0.23402
 Alpha  occ. eigenvalues --   -0.21791  -0.20715  -0.19065  -0.17608  -0.16062
 Alpha  occ. eigenvalues --   -0.15190  -0.14303  -0.13468  -0.13308  -0.11183
 Alpha  occ. eigenvalues --   -0.09946  -0.08934  -0.07263  -0.01587   0.00886
 Alpha  occ. eigenvalues --    0.09677
 Alpha virt. eigenvalues --    0.16087   0.21753   0.25680   0.25895   0.29078
 Alpha virt. eigenvalues --    0.30180   0.33692   0.38373   0.43267   0.45260
 Alpha virt. eigenvalues --    0.48304   0.48461   0.53480   0.56579   0.57405
 Alpha virt. eigenvalues --    0.58843   0.59810   0.61889   0.66694   0.70108
 Alpha virt. eigenvalues --    0.71312   0.74987   0.79013   0.82028   0.84929
 Alpha virt. eigenvalues --    0.92563   0.93233   1.06676   1.09513
          Condensed to atoms (all electrons):
               1          2          3          4          5          6
     1  N    6.590729   0.659083  -0.010823  -0.000164  -0.000001   0.000000
     2  C    0.659083   4.933923   0.420245  -0.030991   0.000904   0.000012
     3  C   -0.010823   0.420245   4.781349   0.504663  -0.029037  -0.009690
     4  C   -0.000164  -0.030991   0.504663   4.832122   0.485264  -0.029379
     5  C   -0.000001   0.000904  -0.029037   0.485264   4.832436   0.514336
     6  C    0.000000   0.000012  -0.009690  -0.029379   0.514336   4.837561
     7  C   -0.000001   0.000734  -0.024725  -0.008747  -0.026672   0.470528
     8  C    0.000002  -0.026593   0.452975  -0.027319  -0.008325  -0.027202
     9  C   -0.000094  -0.003823  -0.027163   0.000661   0.000035   0.000824
    10  C    0.000000   0.000014   0.000722  -0.000006   0.000000   0.000057
    11  C    0.000000   0.000000   0.000013   0.000000  -0.000007   0.000667
    12  C    0.000000  -0.000005   0.000724   0.000029   0.000683  -0.026097
    13  N    0.000000   0.000000   0.000000   0.000000   0.000000   0.000000
    14  C    0.000000   0.000000  -0.000006   0.000000   0.000000   0.000000
    15  H    0.000061  -0.003708  -0.025370   0.387507  -0.024547   0.001347
    16  H    0.000000  -0.000018   0.001326  -0.025769   0.387624  -0.025254
    17  H    0.000000   0.000001   0.000029   0.001423  -0.026444   0.385376
    18  H   -0.000151   0.001551  -0.003453   0.000016  -0.000001  -0.000016
    19  H    0.000000   0.000000  -0.000019  -0.000001   0.000009  -0.003789
               7          8          9         10         11         12
     1  N   -0.000001   0.000002  -0.000094   0.000000   0.000000   0.000000
     2  C    0.000734  -0.026593  -0.003823   0.000014   0.000000  -0.000005
     3  C   -0.024725   0.452975  -0.027163   0.000722   0.000013   0.000724
     4  C   -0.008747  -0.027319   0.000661  -0.000006   0.000000   0.000029
     5  C   -0.026672  -0.008325   0.000035   0.000000  -0.000007   0.000683
     6  C    0.470528  -0.027202   0.000824   0.000057   0.000667  -0.026097
     7  C    4.824181   0.449895  -0.028704  -0.013094  -0.020046   0.453290
     8  C    0.449895   4.806176   0.484301  -0.029926  -0.007097  -0.029752
     9  C   -0.028704   0.484301   4.877098   0.487668  -0.019753  -0.011520
    10  C   -0.013094  -0.029926   0.487668   4.846677   0.420667  -0.031097
    11  C   -0.020046  -0.007097  -0.019753   0.420667   5.390718   0.482601
    12  C    0.453290  -0.029752  -0.011520  -0.031097   0.482601   4.922305
    13  N    0.000000  -0.000001  -0.000007  -0.010634   0.000021  -0.000002
    14  C    0.000004   0.000901  -0.037409   0.402186  -0.032909   0.001331
    15  H    0.000030   0.001201  -0.000015   0.000000   0.000000   0.000000
    16  H    0.001307   0.000020   0.000001   0.000000   0.000000  -0.000015
    17  H   -0.025709   0.001285  -0.000017   0.000001   0.000015  -0.003195
    18  H    0.001209  -0.026339   0.382622  -0.022764   0.000978   0.000077
    19  H   -0.034374   0.001253   0.000020   0.002150  -0.032160   0.380750
              13         14         15         16         17         18
     1  N    0.000000   0.000000   0.000061   0.000000   0.000000  -0.000151
     2  C    0.000000   0.000000  -0.003708  -0.000018   0.000001   0.001551
     3  C    0.000000  -0.000006  -0.025370   0.001326   0.000029  -0.003453
     4  C    0.000000   0.000000   0.387507  -0.025769   0.001423   0.000016
     5  C    0.000000   0.000000  -0.024547   0.387624  -0.026444  -0.000001
     6  C    0.000000   0.000000   0.001347  -0.025254   0.385376  -0.000016
     7  C    0.000000   0.000004   0.000030   0.001307  -0.025709   0.001209
     8  C   -0.000001   0.000901   0.001201   0.000020   0.001285  -0.026339
     9  C   -0.000007  -0.037409  -0.000015   0.000001  -0.000017   0.382622
    10  C   -0.010634   0.402186   0.000000   0.000000   0.000001  -0.022764
    11  C    0.000021  -0.032909   0.000000   0.000000   0.000015   0.000978
    12  C   -0.000002   0.001331   0.000000  -0.000015  -0.003195   0.000077
    13  N    6.618202   0.659802   0.000000   0.000000   0.000000   0.000048
    14  C    0.659802   4.966317   0.000000   0.000000   0.000000  -0.003049
    15  H    0.000000   0.000000   0.606479  -0.003427  -0.000034  -0.000001
    16  H    0.000000   0.000000  -0.003427   0.616035  -0.003722   0.000000
    17  H    0.000000   0.000000  -0.000034  -0.003722   0.612820   0.000000
    18  H    0.000048  -0.003049  -0.000001   0.000000   0.000000   0.612302
    19  H    0.000000  -0.000012   0.000000   0.000000   0.001260   0.000003
              19
     1  N    0.000000
     2  C    0.000000
     3  C   -0.000019
     4  C   -0.000001
     5  C    0.000009
     6  C   -0.003789
     7  C   -0.034374
     8  C    0.001253
     9  C    0.000020
    10  C    0.002150
    11  C   -0.032160
    12  C    0.380750
    13  N    0.000000
    14  C   -0.000012
    15  H    0.000000
    16  H    0.000000
    17  H    0.001260
    18  H    0.000003
    19  H    0.664271
 Mulliken charges:
               1
     1  N   -0.238642
     2  C    0.048670
     3  C   -0.031761
     4  C   -0.089310
     5  C   -0.106256
     6  C   -0.089281
     7  C   -0.019104
     8  C   -0.015456
     9  C   -0.104723
    10  C   -0.052620
    11  C   -0.183709
    12  C   -0.140107
    13  N   -0.267430
    14  C    0.042844
    15  H    0.060477
    16  H    0.051892
    17  H    0.056910
    18  H    0.056967
    19  H    0.020638
 Sum of Mulliken charges =  -1.00000
 Mulliken charges with hydrogens summed into heavy atoms:
               1
     1  N   -0.238642
     2  C    0.048670
     3  C   -0.031761
     4  C   -0.028833
     5  C   -0.054364
     6  C   -0.032371
     7  C   -0.019104
     8  C   -0.015456
     9  C   -0.047756
    10  C   -0.052620
    11  C   -0.183709
    12  C   -0.119470
    13  N   -0.267430
    14  C    0.042844
 Electronic spatial extent (au):  <R**2>=           2774.4559
 Charge=             -1.0000 electrons
 Dipole moment (field-independent basis, Debye):
    X=              7.0107    Y=             -1.3469    Z=              0.1393  Tot=              7.1403
 Quadrupole moment (field-independent basis, Debye-Ang):
   XX=           -114.8018   YY=            -98.4067   ZZ=            -74.6797
   XY=             -6.1920   XZ=              1.3851   YZ=             -1.0899
 Traceless Quadrupole moment (field-independent basis, Debye-Ang):
   XX=            -18.8390   YY=             -2.4440   ZZ=             21.2830
   XY=             -6.1920   XZ=              1.3851   YZ=             -1.0899
 Octapole moment (field-independent basis, Debye-Ang**2):
  XXX=            158.1360  YYY=            -46.9102  ZZZ=              0.5482  XYY=             -1.5641
  XXY=            -21.1474  XXZ=             -7.0155  XZZ=             -2.2644  YZZ=              4.9644
  YYZ=              3.9591  XYZ=              6.4678
 Hexadecapole moment (field-independent basis, Debye-Ang**3):
 XXXX=          -2955.6133 YYYY=          -1488.0466 ZZZZ=            -70.5570 XXXY=            115.1404
 XXXZ=             45.6978 YYYX=           -142.8131 YYYZ=              3.6414 ZZZX=             -4.7269
 ZZZY=             -0.6841 XXYY=           -700.4426 XXZZ=           -396.1204 YYZZ=           -217.4242
 XXYZ=            -19.7411 YYXZ=              3.0239 ZZXY=              1.5853
 N-N= 6.956573935225D+02 E-N=-2.713429651209D+03  KE= 5.546623660877D+02
 1\1\GINC-N015\FOpt\RB3LYP\STO-3G\C12H5N2(1-)\R2532\15-Jun-2021\0\\#N B
 3LYP/STO-3G OPT\\1Naph\\-1,1\N,1.0485841158,-0.2059070471,-0.081443572
 4\C,2.2476511043,-0.2206062732,-0.0247169133\C,3.7069383101,-0.2004265
 647,0.0354609816\C,4.3641205644,1.0407333504,0.128176511\C,5.781137472
 1,1.0975934105,0.1943922322\C,6.5322953491,-0.0790215146,0.1833482859\
 C,5.9208217066,-1.3720642378,0.0677183369\C,4.4622811586,-1.4455875218
 ,0.0069305628\C,3.8588195806,-2.7351868231,-0.0606525424\C,4.682895198
 ,-3.8820265275,0.0507311801\C,6.1317574348,-3.8967910392,-0.099517657\
 C,6.6693473648,-2.5971018137,-0.1095161155\N,3.4612947908,-6.223592744
 2,0.4947204811\C,4.0015102789,-5.169542776,0.3019683386\H,3.7735971529
 ,1.9658175373,0.149119768\H,6.2778328427,2.0745418001,0.2528552363\H,7
 .6287840717,-0.0266098266,0.2422838327\H,2.7652334902,-2.807975641,-0.
 1432195491\H,7.7474480136,-2.4494857478,-0.2978593976\\Version=ES64L-G
 09RevD.01\State=1-A\HF=-562.5159053\RMSD=6.714e-09\RMSF=2.725e-05\Dipo
 le=0.5176989,2.7610618,-0.0095927\Quadrupole=-1.8582985,-13.9008475,15
 .7591459,4.6745712,0.6932379,1.7288846\PG=C01 [X(C12H5N2)]\\@


          EVOLUTION
 IN THE BEGINNING GOD MADE MAN.
 HE WORKED THE DIRT WITH HIS HANDS.
 THEN GOD DECIDED TO GIVE MAN SCIENCE,
 MAN SHOULD BE USEFUL (LIKE AN APPLIANCE.)
 BUT SOON MAN'S KNOWLEDGE GREW TOO GREAT,
 TO THE HEADING SCIENCE HE COULDN'T RELATE
 SO GOD SAID "LETS HAVE DIFFERENT FIELDS,
 WE'LL DIVIDE THEM UP, SEE WHAT IT YIELDS."
 ENTER PHYSICS, CHEMISTRY, BIO
 THEY SPRANG UP AROUND THE NILE.
 BUT CHEMISTRY SURPASSED THE REST
 FAR AND AWAY IT WAS THE BEST.
 EXPERIMENT WAS GOD'S DECREE
 EXPERIMENT DID CHEMISTS WITH LOTS OF GLEE
 BUT SOON THEIR TESTS BEGAN TO BOG,
 THEY FOUND THEMSELVES DEEP IN A FOG.
 "GIVE US SOME HELP" THEY CRIED TO GOD.
 GOD LOOKED AROUND, THEN GAVE THE NOD.
 ENTER EINSTEIN, HEISENBERG, BOHR,
 REACTION PATHS WERE CLEAR ONCE MORE.
 WITH THEORISTS GOD SEND DIRECTION
 AND THEN HE STOPPED, HE'D MADE PERFECTION.
          -- THOMAS A. HOLME, 1981
 Job cpu time:       0 days  0 hours  5 minutes 43.4 seconds.
 File lengths (MBytes):  RWF=      5 Int=      0 D2E=      0 Chk=      2 Scr=      1
 Normal termination of Gaussian 09 at Tue Jun 15 11:20:05 2021.
