 Entering Gaussian System, Link 0=/usr/local/apps//g09/g09
 Input=32.com
 Output=32.out
 Initial command:
 /usr/local/apps//g09/l1.exe "/tmp/bnp.472809.sequoia/Gau-22718.inp" -scrdir="/tmp/bnp.472809.sequoia/"
 Entering Link 1 = /usr/local/apps//g09/l1.exe PID=     22719.
  
 Copyright (c) 1988,1990,1992,1993,1995,1998,2003,2009,2013,
            Gaussian, Inc.  All Rights Reserved.
  
 This is part of the Gaussian(R) 09 program.  It is based on
 the Gaussian(R) 03 system (copyright 2003, Gaussian, Inc.),
 the Gaussian(R) 98 system (copyright 1998, Gaussian, Inc.),
 the Gaussian(R) 94 system (copyright 1995, Gaussian, Inc.),
 the Gaussian 92(TM) system (copyright 1992, Gaussian, Inc.),
 the Gaussian 90(TM) system (copyright 1990, Gaussian, Inc.),
 the Gaussian 88(TM) system (copyright 1988, Gaussian, Inc.),
 the Gaussian 86(TM) system (copyright 1986, Carnegie Mellon
 University), and the Gaussian 82(TM) system (copyright 1983,
 Carnegie Mellon University). Gaussian is a federally registered
 trademark of Gaussian, Inc.
  
 This software contains proprietary and confidential information,
 including trade secrets, belonging to Gaussian, Inc.
  
 This software is provided under written license and may be
 used, copied, transmitted, or stored only in accord with that
 written license.
  
 The following legend is applicable only to US Government
 contracts under FAR:
  
                    RESTRICTED RIGHTS LEGEND
  
 Use, reproduction and disclosure by the US Government is
 subject to restrictions as set forth in subparagraphs (a)
 and (c) of the Commercial Computer Software - Restricted
 Rights clause in FAR 52.227-19.
  
 Gaussian, Inc.
 340 Quinnipiac St., Bldg. 40, Wallingford CT 06492
  
  
 ---------------------------------------------------------------
 Warning -- This program may not be used in any manner that
 competes with the business of Gaussian, Inc. or will provide
 assistance to any competitor of Gaussian, Inc.  The licensee
 of this program is prohibited from giving any competitor of
 Gaussian, Inc. access to this program.  By using this program,
 the user acknowledges that Gaussian, Inc. is engaged in the
 business of creating and licensing software in the field of
 computational chemistry and represents and warrants to the
 licensee that it is not a competitor of Gaussian, Inc. and that
 it will not use this program in any manner prohibited above.
 ---------------------------------------------------------------
  

 Cite this work as:
 Gaussian 09, Revision D.01,
 M. J. Frisch, G. W. Trucks, H. B. Schlegel, G. E. Scuseria, 
 M. A. Robb, J. R. Cheeseman, G. Scalmani, V. Barone, B. Mennucci, 
 G. A. Petersson, H. Nakatsuji, M. Caricato, X. Li, H. P. Hratchian, 
 A. F. Izmaylov, J. Bloino, G. Zheng, J. L. Sonnenberg, M. Hada, 
 M. Ehara, K. Toyota, R. Fukuda, J. Hasegawa, M. Ishida, T. Nakajima, 
 Y. Honda, O. Kitao, H. Nakai, T. Vreven, J. A. Montgomery, Jr., 
 J. E. Peralta, F. Ogliaro, M. Bearpark, J. J. Heyd, E. Brothers, 
 K. N. Kudin, V. N. Staroverov, T. Keith, R. Kobayashi, J. Normand, 
 K. Raghavachari, A. Rendell, J. C. Burant, S. S. Iyengar, J. Tomasi, 
 M. Cossi, N. Rega, J. M. Millam, M. Klene, J. E. Knox, J. B. Cross, 
 V. Bakken, C. Adamo, J. Jaramillo, R. Gomperts, R. E. Stratmann, 
 O. Yazyev, A. J. Austin, R. Cammi, C. Pomelli, J. W. Ochterski, 
 R. L. Martin, K. Morokuma, V. G. Zakrzewski, G. A. Voth, 
 P. Salvador, J. J. Dannenberg, S. Dapprich, A. D. Daniels, 
 O. Farkas, J. B. Foresman, J. V. Ortiz, J. Cioslowski, 
 and D. J. Fox, Gaussian, Inc., Wallingford CT, 2013.
 
 ******************************************
 Gaussian 09:  ES64L-G09RevD.01 24-Apr-2013
                15-Jun-2021 
 ******************************************
 -------------------
 #N B3LYP/STO-3G OPT
 -------------------
 1/14=-1,18=20,19=15,26=3,38=1/1,3;
 2/9=110,12=2,17=6,18=5,40=1/2;
 3/6=3,11=2,16=1,25=1,30=1,71=1,74=-5/1,2,3;
 4//1;
 5/5=2,38=5/2;
 6/7=2,8=2,9=2,10=2,28=1/1;
 7//1,2,3,16;
 1/14=-1,18=20,19=15,26=3/3(2);
 2/9=110/2;
 99//99;
 2/9=110/2;
 3/6=3,11=2,16=1,25=1,30=1,71=1,74=-5/1,2,3;
 4/5=5,16=3,69=1/1;
 5/5=2,38=5/2;
 7//1,2,3,16;
 1/14=-1,18=20,19=15,26=3/3(-5);
 2/9=110/2;
 6/7=2,8=2,9=2,10=2,19=2,28=1/1;
 99/9=1/99;
 -----
 2Naph
 -----
 Symbolic Z-matrix:
 Charge = -1 Multiplicity = 1
 N                     2.46564  -5.27185   3.45142 
 C                     3.35281  -5.15711   2.71213 
 C                     4.88191  -3.73417   1.42011 
 C                     4.45363  -5.01146   1.80486 
 C                     5.10322  -6.14169   1.3049 
 C                     6.17828  -5.9941    0.43057 
 C                     6.6225   -4.72658   0.04456 
 C                     5.96764  -3.57677   0.54212 
 C                     6.42439  -2.30902   0.15007 
 C                     7.51619  -2.18147  -0.7136 
 C                     8.16372  -3.32039  -1.20025 
 C                     7.71342  -4.59054  -0.82365 
 N                     10.20423  -3.0798   -2.78381 
 C                     9.29002  -3.18822  -2.07704 
 H                     4.36949  -2.85635   1.81243 
 H                     4.7875   -7.14236   1.58979 
 H                     5.93727  -1.40743   0.51792 
 H                     7.85782  -1.18783  -0.99959 
 H                     8.21818  -5.47855  -1.20406 
 

 GradGradGradGradGradGradGradGradGradGradGradGradGradGradGradGradGradGrad
 Berny optimization.
 Initialization pass.
                           ----------------------------
                           !    Initial Parameters    !
                           ! (Angstroms and Degrees)  !
 --------------------------                            --------------------------
 ! Name  Definition              Value          Derivative Info.                !
 --------------------------------------------------------------------------------
 ! R1    R(1,2)                  1.1605         estimate D2E/DX2                !
 ! R2    R(2,4)                  1.4339         estimate D2E/DX2                !
 ! R3    R(3,4)                  1.401          estimate D2E/DX2                !
 ! R4    R(3,8)                  1.4052         estimate D2E/DX2                !
 ! R5    R(3,15)                 1.0895         estimate D2E/DX2                !
 ! R6    R(4,5)                  1.3962         estimate D2E/DX2                !
 ! R7    R(5,6)                  1.3936         estimate D2E/DX2                !
 ! R8    R(5,16)                 1.0873         estimate D2E/DX2                !
 ! R9    R(6,7)                  1.3975         estimate D2E/DX2                !
 ! R10   R(7,8)                  1.4137         estimate D2E/DX2                !
 ! R11   R(7,12)                 1.4009         estimate D2E/DX2                !
 ! R12   R(8,9)                  1.4034         estimate D2E/DX2                !
 ! R13   R(9,10)                 1.3979         estimate D2E/DX2                !
 ! R14   R(9,17)                 1.0888         estimate D2E/DX2                !
 ! R15   R(10,11)                1.3976         estimate D2E/DX2                !
 ! R16   R(10,18)                1.089          estimate D2E/DX2                !
 ! R17   R(11,12)                1.3992         estimate D2E/DX2                !
 ! R18   R(11,14)                1.4335         estimate D2E/DX2                !
 ! R19   R(12,19)                1.09           estimate D2E/DX2                !
 ! R20   R(13,14)                1.1606         estimate D2E/DX2                !
 ! A1    A(4,3,8)              120.6578         estimate D2E/DX2                !
 ! A2    A(4,3,15)             119.4637         estimate D2E/DX2                !
 ! A3    A(8,3,15)             119.8775         estimate D2E/DX2                !
 ! A4    A(2,4,3)              120.0681         estimate D2E/DX2                !
 ! A5    A(2,4,5)              120.1006         estimate D2E/DX2                !
 ! A6    A(3,4,5)              119.8311         estimate D2E/DX2                !
 ! A7    A(4,5,6)              119.8585         estimate D2E/DX2                !
 ! A8    A(4,5,16)             121.0709         estimate D2E/DX2                !
 ! A9    A(6,5,16)             119.07           estimate D2E/DX2                !
 ! A10   A(5,6,7)              120.9698         estimate D2E/DX2                !
 ! A11   A(6,7,8)              119.5541         estimate D2E/DX2                !
 ! A12   A(6,7,12)             120.4521         estimate D2E/DX2                !
 ! A13   A(8,7,12)             119.993          estimate D2E/DX2                !
 ! A14   A(3,8,7)              119.1266         estimate D2E/DX2                !
 ! A15   A(3,8,9)              121.8178         estimate D2E/DX2                !
 ! A16   A(7,8,9)              119.0549         estimate D2E/DX2                !
 ! A17   A(8,9,10)             120.6108         estimate D2E/DX2                !
 ! A18   A(8,9,17)             120.5332         estimate D2E/DX2                !
 ! A19   A(10,9,17)            118.8552         estimate D2E/DX2                !
 ! A20   A(9,10,11)            120.1741         estimate D2E/DX2                !
 ! A21   A(9,10,18)            119.3756         estimate D2E/DX2                !
 ! A22   A(11,10,18)           120.45           estimate D2E/DX2                !
 ! A23   A(10,11,12)           119.7959         estimate D2E/DX2                !
 ! A24   A(10,11,14)           120.125          estimate D2E/DX2                !
 ! A25   A(12,11,14)           120.0784         estimate D2E/DX2                !
 ! A26   A(7,12,11)            120.3696         estimate D2E/DX2                !
 ! A27   A(7,12,19)            119.8558         estimate D2E/DX2                !
 ! A28   A(11,12,19)           119.7737         estimate D2E/DX2                !
 ! A29   L(1,2,4,15,-1)        179.8506         estimate D2E/DX2                !
 ! A30   L(11,14,13,19,-1)     180.0668         estimate D2E/DX2                !
 ! A31   L(1,2,4,15,-2)        179.6131         estimate D2E/DX2                !
 ! A32   L(11,14,13,19,-2)     180.2392         estimate D2E/DX2                !
 ! D1    D(8,3,4,2)            179.3699         estimate D2E/DX2                !
 ! D2    D(8,3,4,5)             -0.4926         estimate D2E/DX2                !
 ! D3    D(15,3,4,2)            -0.2516         estimate D2E/DX2                !
 ! D4    D(15,3,4,5)           179.8858         estimate D2E/DX2                !
 ! D5    D(4,3,8,7)              0.2656         estimate D2E/DX2                !
 ! D6    D(4,3,8,9)           -179.4276         estimate D2E/DX2                !
 ! D7    D(15,3,8,7)           179.8856         estimate D2E/DX2                !
 ! D8    D(15,3,8,9)             0.1923         estimate D2E/DX2                !
 ! D9    D(2,4,5,6)           -179.5652         estimate D2E/DX2                !
 ! D10   D(2,4,5,16)             0.1542         estimate D2E/DX2                !
 ! D11   D(3,4,5,6)              0.2972         estimate D2E/DX2                !
 ! D12   D(3,4,5,16)          -179.9833         estimate D2E/DX2                !
 ! D13   D(4,5,6,7)              0.123          estimate D2E/DX2                !
 ! D14   D(16,5,6,7)          -179.6021         estimate D2E/DX2                !
 ! D15   D(5,6,7,8)             -0.348          estimate D2E/DX2                !
 ! D16   D(5,6,7,12)           179.3094         estimate D2E/DX2                !
 ! D17   D(6,7,8,3)              0.1522         estimate D2E/DX2                !
 ! D18   D(6,7,8,9)            179.854          estimate D2E/DX2                !
 ! D19   D(12,7,8,3)          -179.5068         estimate D2E/DX2                !
 ! D20   D(12,7,8,9)             0.195          estimate D2E/DX2                !
 ! D21   D(6,7,12,11)         -179.4683         estimate D2E/DX2                !
 ! D22   D(6,7,12,19)            0.1983         estimate D2E/DX2                !
 ! D23   D(8,7,12,11)            0.1877         estimate D2E/DX2                !
 ! D24   D(8,7,12,19)          179.8542         estimate D2E/DX2                !
 ! D25   D(3,8,9,10)           179.3086         estimate D2E/DX2                !
 ! D26   D(3,8,9,17)            -0.3664         estimate D2E/DX2                !
 ! D27   D(7,8,9,10)            -0.3849         estimate D2E/DX2                !
 ! D28   D(7,8,9,17)           179.9401         estimate D2E/DX2                !
 ! D29   D(8,9,10,11)            0.1922         estimate D2E/DX2                !
 ! D30   D(8,9,10,18)         -179.6019         estimate D2E/DX2                !
 ! D31   D(17,9,10,11)         179.8727         estimate D2E/DX2                !
 ! D32   D(17,9,10,18)           0.0785         estimate D2E/DX2                !
 ! D33   D(9,10,11,12)           0.1946         estimate D2E/DX2                !
 ! D34   D(9,10,11,14)        -179.4854         estimate D2E/DX2                !
 ! D35   D(18,10,11,12)        179.9865         estimate D2E/DX2                !
 ! D36   D(18,10,11,14)          0.3065         estimate D2E/DX2                !
 ! D37   D(10,11,12,7)          -0.3838         estimate D2E/DX2                !
 ! D38   D(10,11,12,19)        179.9494         estimate D2E/DX2                !
 ! D39   D(14,11,12,7)         179.2963         estimate D2E/DX2                !
 ! D40   D(14,11,12,19)         -0.3705         estimate D2E/DX2                !
 --------------------------------------------------------------------------------
 Trust Radius=3.00D-01 FncErr=1.00D-07 GrdErr=1.00D-06
 Number of steps in this run=    102 maximum allowed number of steps=    114.
 GradGradGradGradGradGradGradGradGradGradGradGradGradGradGradGradGradGrad

                          Input orientation:                          
 ---------------------------------------------------------------------
 Center     Atomic      Atomic             Coordinates (Angstroms)
 Number     Number       Type             X           Y           Z
 ---------------------------------------------------------------------
      1          7           0        2.465640   -5.271850    3.451420
      2          6           0        3.352810   -5.157110    2.712130
      3          6           0        4.881910   -3.734170    1.420110
      4          6           0        4.453630   -5.011460    1.804860
      5          6           0        5.103220   -6.141690    1.304900
      6          6           0        6.178280   -5.994100    0.430570
      7          6           0        6.622500   -4.726580    0.044560
      8          6           0        5.967640   -3.576770    0.542120
      9          6           0        6.424390   -2.309020    0.150070
     10          6           0        7.516190   -2.181470   -0.713600
     11          6           0        8.163720   -3.320390   -1.200250
     12          6           0        7.713420   -4.590540   -0.823650
     13          7           0       10.204230   -3.079800   -2.783810
     14          6           0        9.290020   -3.188220   -2.077040
     15          1           0        4.369490   -2.856350    1.812430
     16          1           0        4.787500   -7.142360    1.589790
     17          1           0        5.937270   -1.407430    0.517920
     18          1           0        7.857820   -1.187830   -0.999590
     19          1           0        8.218180   -5.478550   -1.204060
 ---------------------------------------------------------------------
                    Distance matrix (angstroms):
                    1          2          3          4          5
     1  N    0.000000
     2  C    1.160511   0.000000
     3  C    3.511273   2.456058   0.000000
     4  C    2.594430   1.433931   1.401045   0.000000
     5  C    3.510128   2.452270   2.420414   1.396190   0.000000
     6  C    4.840545   3.726842   2.786942   2.414264   1.393553
     7  C    5.402175   4.241716   2.430364   2.807812   2.428828
     8  C    4.858120   3.747500   1.405152   2.438252   2.812094
     9  C    5.945500   4.910231   2.454241   3.731676   4.215268
    10  C    7.239192   6.158230   3.728676   4.871423   5.057678
    11  C    7.610148   6.467234   4.219926   5.065093   4.858207
    12  C    6.802911   5.642487   3.712853   4.208618   3.708091
    13  N   10.176883   9.025659   6.813827   7.606353   7.218935
    14  C    9.026491   7.878016   5.653278   6.464056   6.139202
    15  H    3.485050   2.671441   1.089522   2.156765   3.404322
    16  H    3.515040   2.694290   3.413717   2.167593   1.087282
    17  H    5.965851   5.055105   2.709511   4.104441   4.871159
    18  H    8.097303   7.058836   4.603785   5.837259   6.118760
    19  H    7.403238   6.253934   4.589099   4.841860   4.054332
                    6          7          8          9         10
     6  C    0.000000
     7  C    1.397477   0.000000
     8  C    2.429053   1.413673   0.000000
     9  C    3.703926   2.427957   1.403394   0.000000
    10  C    4.199438   2.801977   2.433455   1.397935   0.000000
    11  C    3.708136   2.429461   2.815022   2.423118   1.397592
    12  C    2.428930   1.400858   2.437377   2.795543   2.419634
    13  N    5.918924   4.851840   5.409019   4.846539   3.509747
    14  C    4.883031   3.739439   4.248433   3.734280   2.453362
    15  H    3.876433   3.420406   2.164896   2.699190   4.091211
    16  H    2.143959   3.404549   3.899202   5.302205   6.112429
    17  H    4.593828   3.422041   2.169688   1.088790   2.146804
    18  H    5.288331   3.890889   3.414189   2.152558   1.088954
    19  H    2.664395   2.161181   3.425032   3.885521   3.406476
                   11         12         13         14         15
    11  C    0.000000
    12  C    1.399242   0.000000
    13  N    2.594075   3.511224   0.000000
    14  C    1.433451   2.454212   1.160629   0.000000
    15  H    4.867007   4.597630   7.430985   6.280902   0.000000
    16  H    5.812972   4.571377   8.060629   7.025208   4.312097
    17  H    3.401265   3.884161   5.648468   4.598474   2.496610
    18  H    2.163712   3.410314   3.502661   2.685825   4.781199
    19  H    2.158850   1.089980   3.491992   2.675172   5.548654
                   16         17         18         19
    16  H    0.000000
    17  H    5.946453   0.000000
    18  H    7.182491   2.457554   0.000000
    19  H    4.726883   4.974111   4.310678   0.000000
 Stoichiometry    C12H5N2(1-)
 Framework group  C1[X(C12H5N2)]
 Deg. of freedom    51
 Full point group                 C1      NOp   1
 Largest Abelian subgroup         C1      NOp   1
 Largest concise Abelian subgroup C1      NOp   1
                         Standard orientation:                         
 ---------------------------------------------------------------------
 Center     Atomic      Atomic             Coordinates (Angstroms)
 Number     Number       Type             X           Y           Z
 ---------------------------------------------------------------------
      1          7           0       -5.077563    0.386396    0.038146
      2          6           0       -3.940900    0.153344    0.016474
      3          6           0       -1.607174    0.918271   -0.012338
      4          6           0       -2.535567   -0.130974   -0.002501
      5          6           0       -2.088793   -1.453738   -0.008315
      6          6           0       -0.721786   -1.724286   -0.017601
      7          6           0        0.216298   -0.688458   -0.018653
      8          6           0       -0.227133    0.653868   -0.017645
      9          6           0        0.723950    1.685833   -0.015590
     10          6           0        2.091036    1.393916   -0.006470
     11          6           0        2.525709    0.065642   -0.003332
     12          6           0        1.587978   -0.972835   -0.013473
     13          7           0        5.063006   -0.472571    0.037648
     14          6           0        3.927662   -0.232501    0.017157
     15          1           0       -1.962448    1.948237   -0.009618
     16          1           0       -2.791490   -2.283405   -0.001161
     17          1           0        0.409213    2.728140   -0.015759
     18          1           0        2.811546    2.210386    0.001560
     19          1           0        1.927387   -2.008622   -0.011857
 ---------------------------------------------------------------------
 Rotational constants (GHZ):      2.7656872      0.3488557      0.3098066
 Standard basis: STO-3G (5D, 7F)
 There are    75 symmetry adapted cartesian basis functions of A   symmetry.
 There are    75 symmetry adapted basis functions of A   symmetry.
    75 basis functions,   225 primitive gaussians,    75 cartesian basis functions
    46 alpha electrons       46 beta electrons
       nuclear repulsion energy       695.1737074478 Hartrees.
 NAtoms=   19 NActive=   19 NUniq=   19 SFac= 1.00D+00 NAtFMM=   60 NAOKFM=F Big=F
 Integral buffers will be    131072 words long.
 Raffenetti 2 integral format.
 Two-electron integral symmetry is turned on.
 One-electron integrals computed using PRISM.
 NBasis=    75 RedAO= T EigKep=  1.55D-01  NBF=    75
 NBsUse=    75 1.00D-06 EigRej= -1.00D+00 NBFU=    75
 ExpMin= 1.69D-01 ExpMax= 9.91D+01 ExpMxC= 9.91D+01 IAcc=1 IRadAn=         1 AccDes= 0.00D+00
 Harris functional with IExCor=  402 and IRadAn=       1 diagonalized for initial guess.
 HarFok:  IExCor=  402 AccDes= 0.00D+00 IRadAn=         1 IDoV= 1 UseB2=F ITyADJ=14
 ICtDFT=  3500011 ScaDFX=  1.000000  1.000000  1.000000  1.000000
 FoFCou: FMM=F IPFlag=           0 FMFlag=      100000 FMFlg1=           0
         NFxFlg=           0 DoJE=T BraDBF=F KetDBF=T FulRan=T
         wScrn=  0.000000 ICntrl=     500 IOpCl=  0 I1Cent=   200000004 NGrid=           0
         NMat0=    1 NMatS0=      1 NMatT0=    0 NMatD0=    1 NMtDS0=    0 NMtDT0=    0
 Petite list used in FoFCou.
 Keep R1 ints in memory in canonical form, NReq=4993994.
 Requested convergence on RMS density matrix=1.00D-08 within 128 cycles.
 Requested convergence on MAX density matrix=1.00D-06.
 Requested convergence on             energy=1.00D-06.
 No special actions if energy rises.
 Integral accuracy reduced to 1.0D-05 until final iterations.
 Initial convergence to 1.0D-05 achieved.  Increase integral accuracy.
 SCF Done:  E(RB3LYP) =  -562.480057225     A.U. after   29 cycles
            NFock= 29  Conv=0.37D-08     -V/T= 2.0127

 **********************************************************************

            Population analysis using the SCF density.

 **********************************************************************

 Orbital symmetries:
       Occupied  (A) (A) (A) (A) (A) (A) (A) (A) (A) (A) (A) (A)
                 (A) (A) (A) (A) (A) (A) (A) (A) (A) (A) (A) (A)
                 (A) (A) (A) (A) (A) (A) (A) (A) (A) (A) (A) (A)
                 (A) (A) (A) (A) (A) (A) (A) (A) (A) (A)
       Virtual   (A) (A) (A) (A) (A) (A) (A) (A) (A) (A) (A) (A)
                 (A) (A) (A) (A) (A) (A) (A) (A) (A) (A) (A) (A)
                 (A) (A) (A) (A) (A)
 The electronic state is 1-A.
 Alpha  occ. eigenvalues --  -13.99239 -13.97142  -9.90036  -9.89946  -9.87864
 Alpha  occ. eigenvalues --   -9.87857  -9.87677  -9.87202  -9.86617  -9.86135
 Alpha  occ. eigenvalues --   -9.83975  -9.83493  -9.80222  -9.65386  -0.74563
 Alpha  occ. eigenvalues --   -0.72741  -0.68395  -0.63476  -0.58098  -0.56654
 Alpha  occ. eigenvalues --   -0.50860  -0.46584  -0.43062  -0.39859  -0.36789
 Alpha  occ. eigenvalues --   -0.31470  -0.31411  -0.26576  -0.25952  -0.25265
 Alpha  occ. eigenvalues --   -0.21602  -0.21345  -0.19948  -0.18835  -0.16943
 Alpha  occ. eigenvalues --   -0.15977  -0.15714  -0.14886  -0.13942  -0.13081
 Alpha  occ. eigenvalues --   -0.11385  -0.10462  -0.07486  -0.04043   0.02009
 Alpha  occ. eigenvalues --    0.14302
 Alpha virt. eigenvalues --    0.17424   0.21191   0.24725   0.27255   0.29366
 Alpha virt. eigenvalues --    0.31866   0.35642   0.39694   0.45311   0.47998
 Alpha virt. eigenvalues --    0.48868   0.53260   0.55621   0.57426   0.59486
 Alpha virt. eigenvalues --    0.62352   0.64310   0.65413   0.70031   0.73319
 Alpha virt. eigenvalues --    0.74578   0.79149   0.82798   0.85966   0.87782
 Alpha virt. eigenvalues --    0.98167   1.00536   1.14288   1.16429
          Condensed to atoms (all electrons):
               1          2          3          4          5          6
     1  N    6.595489   0.684166  -0.000134  -0.011299  -0.000151  -0.000002
     2  C    0.684166   4.913531  -0.032615   0.418756  -0.029775   0.001160
     3  C   -0.000134  -0.032615   4.866606   0.504296  -0.034403  -0.013816
     4  C   -0.011299   0.418756   0.504296   4.786036   0.463810  -0.028145
     5  C   -0.000151  -0.029775  -0.034403   0.463810   4.894879   0.489844
     6  C   -0.000002   0.001160  -0.013816  -0.028145   0.489844   5.422790
     7  C    0.000000   0.000040  -0.032910  -0.011751  -0.028462   0.451335
     8  C   -0.000002   0.001004   0.495281  -0.027368  -0.012185  -0.030625
     9  C    0.000000  -0.000005  -0.033126   0.000931   0.000060   0.001172
    10  C    0.000000   0.000000   0.000909  -0.000010   0.000001   0.000039
    11  C    0.000000   0.000000   0.000043   0.000001  -0.000016   0.001029
    12  C    0.000000   0.000000   0.000990  -0.000015   0.001379  -0.040017
    13  N    0.000000   0.000000   0.000000   0.000000   0.000000   0.000000
    14  C    0.000000   0.000000   0.000000   0.000000   0.000000  -0.000008
    15  H    0.000084  -0.004067   0.390295  -0.026570   0.001348   0.000043
    16  H    0.000100  -0.003606   0.001255  -0.033341   0.389397  -0.035681
    17  H    0.000000  -0.000002  -0.003813   0.000016  -0.000003  -0.000031
    18  H    0.000000   0.000000  -0.000020   0.000000   0.000000   0.000001
    19  H    0.000000   0.000000  -0.000018   0.000000   0.000032  -0.001990
               7          8          9         10         11         12
     1  N    0.000000  -0.000002   0.000000   0.000000   0.000000   0.000000
     2  C    0.000040   0.001004  -0.000005   0.000000   0.000000   0.000000
     3  C   -0.032910   0.495281  -0.033126   0.000909   0.000043   0.000990
     4  C   -0.011751  -0.027368   0.000931  -0.000010   0.000001  -0.000015
     5  C   -0.028462  -0.012185   0.000060   0.000001  -0.000016   0.001379
     6  C    0.451335  -0.030625   0.001172   0.000039   0.001029  -0.040017
     7  C    4.825054   0.446914  -0.028146  -0.010729  -0.029809   0.484712
     8  C    0.446914   4.800089   0.472494  -0.029457  -0.009525  -0.036516
     9  C   -0.028146   0.472494   4.837639   0.524651  -0.030434  -0.010975
    10  C   -0.010729  -0.029457   0.524651   4.824528   0.479831  -0.030637
    11  C   -0.029809  -0.009525  -0.030434   0.479831   4.771090   0.498712
    12  C    0.484712  -0.036516  -0.010975  -0.030637   0.498712   4.834160
    13  N   -0.000001   0.000000  -0.000001  -0.000119  -0.011630  -0.000170
    14  C    0.001002   0.000006   0.001014  -0.032135   0.428972  -0.030932
    15  H    0.001362  -0.025934  -0.004201   0.000020  -0.000001  -0.000024
    16  H    0.002039  -0.000033   0.000002   0.000000   0.000000  -0.000004
    17  H    0.001424  -0.025212   0.387204  -0.027424   0.001478   0.000007
    18  H    0.000043   0.001449  -0.025739   0.390217  -0.025810   0.001401
    19  H   -0.024098   0.001553   0.000031   0.001400  -0.026434   0.388109
              13         14         15         16         17         18
     1  N    0.000000   0.000000   0.000084   0.000100   0.000000   0.000000
     2  C    0.000000   0.000000  -0.004067  -0.003606  -0.000002   0.000000
     3  C    0.000000   0.000000   0.390295   0.001255  -0.003813  -0.000020
     4  C    0.000000   0.000000  -0.026570  -0.033341   0.000016   0.000000
     5  C    0.000000   0.000000   0.001348   0.389397  -0.000003   0.000000
     6  C    0.000000  -0.000008   0.000043  -0.035681  -0.000031   0.000001
     7  C   -0.000001   0.001002   0.001362   0.002039   0.001424   0.000043
     8  C    0.000000   0.000006  -0.025934  -0.000033  -0.025212   0.001449
     9  C   -0.000001   0.001014  -0.004201   0.000002   0.387204  -0.025739
    10  C   -0.000119  -0.032135   0.000020   0.000000  -0.027424   0.390217
    11  C   -0.011630   0.428972  -0.000001   0.000000   0.001478  -0.025810
    12  C   -0.000170  -0.030932  -0.000024  -0.000004   0.000007   0.001401
    13  N    6.581247   0.686900   0.000000   0.000000   0.000000   0.000065
    14  C    0.686900   4.896037   0.000000   0.000000  -0.000021  -0.003744
    15  H    0.000000   0.000000   0.618729  -0.000041   0.001010  -0.000002
    16  H    0.000000   0.000000  -0.000041   0.646260   0.000000   0.000000
    17  H    0.000000  -0.000021   0.001010   0.000000   0.615708  -0.004043
    18  H    0.000065  -0.003744  -0.000002   0.000000  -0.004043   0.605835
    19  H    0.000060  -0.003731   0.000001  -0.000005   0.000003  -0.000038
              19
     1  N    0.000000
     2  C    0.000000
     3  C   -0.000018
     4  C    0.000000
     5  C    0.000032
     6  C   -0.001990
     7  C   -0.024098
     8  C    0.001553
     9  C    0.000031
    10  C    0.001400
    11  C   -0.026434
    12  C    0.388109
    13  N    0.000060
    14  C   -0.003731
    15  H    0.000001
    16  H   -0.000005
    17  H    0.000003
    18  H   -0.000038
    19  H    0.585966
 Mulliken charges:
               1
     1  N   -0.268250
     2  C    0.051412
     3  C   -0.108819
     4  C   -0.035346
     5  C   -0.135753
     6  C   -0.217098
     7  C   -0.048018
     8  C   -0.021934
     9  C   -0.092571
    10  C   -0.091086
    11  C   -0.047497
    12  C   -0.060181
    13  N   -0.256350
    14  C    0.056639
    15  H    0.047948
    16  H    0.033660
    17  H    0.053700
    18  H    0.060385
    19  H    0.079159
 Sum of Mulliken charges =  -1.00000
 Mulliken charges with hydrogens summed into heavy atoms:
               1
     1  N   -0.268250
     2  C    0.051412
     3  C   -0.060871
     4  C   -0.035346
     5  C   -0.102094
     6  C   -0.217098
     7  C   -0.048018
     8  C   -0.021934
     9  C   -0.038871
    10  C   -0.030701
    11  C   -0.047497
    12  C    0.018978
    13  N   -0.256350
    14  C    0.056639
 Electronic spatial extent (au):  <R**2>=           3222.3472
 Charge=             -1.0000 electrons
 Dipole moment (field-independent basis, Debye):
    X=              1.9147    Y=              3.5587    Z=              0.0991  Tot=              4.0423
 Quadrupole moment (field-independent basis, Debye-Ang):
   XX=           -145.0075   YY=            -81.4510   ZZ=            -73.8781
   XY=              3.5691   XZ=              0.0595   YZ=             -0.3228
 Traceless Quadrupole moment (field-independent basis, Debye-Ang):
   XX=            -44.8953   YY=             18.6611   ZZ=             26.2341
   XY=              3.5691   XZ=              0.0595   YZ=             -0.3228
 Octapole moment (field-independent basis, Debye-Ang**2):
  XXX=             14.5099  YYY=             26.2512  ZZZ=              0.3171  XYY=              7.8268
  XXY=              4.0819  XXZ=             -3.3636  XZZ=             -0.0883  YZZ=             -0.5316
  YYZ=              0.9520  XYZ=              0.3592
 Hexadecapole moment (field-independent basis, Debye-Ang**3):
 XXXX=          -5663.2356 YYYY=           -593.3318 ZZZZ=            -58.1940 XXXY=            214.4117
 XXXZ=              1.0668 YYYX=            -24.0842 YYYZ=             -2.0826 ZZZX=              0.0088
 ZZZY=             -0.1480 XXYY=           -669.1936 XXZZ=           -581.9910 YYZZ=           -106.3975
 XXYZ=              0.4280 YYXZ=             -0.4449 ZZXY=             -4.5424
 N-N= 6.951737074478D+02 E-N=-2.712507880391D+03  KE= 5.554119135267D+02
 Calling FoFJK, ICntrl=      2127 FMM=F ISym2X=0 I1Cent= 0 IOpClX= 0 NMat=1 NMatS=1 NMatT=0.
 ***** Axes restored to original set *****
 -------------------------------------------------------------------
 Center     Atomic                   Forces (Hartrees/Bohr)
 Number     Number              X              Y              Z
 -------------------------------------------------------------------
      1        7          -0.079878770   -0.013720187    0.068353579
      2        6           0.056362920    0.017932325   -0.053196863
      3        6          -0.013558683    0.009164288    0.010305486
      4        6          -0.010888151    0.012335240    0.007685160
      5        6           0.030816866    0.001325199   -0.017404248
      6        6           0.014938791   -0.087614084   -0.018489411
      7        6          -0.012528075   -0.009445056    0.014766167
      8        6          -0.013834934    0.021440692    0.009094350
      9        6           0.024725977    0.030883307   -0.019129411
     10        6          -0.031665507    0.027247228    0.023025814
     11        6           0.011671878   -0.021683240   -0.007338362
     12        6           0.012999121    0.006533999   -0.015611943
     13        7           0.081174944    0.009572724   -0.063318604
     14        6          -0.062908293   -0.006731833    0.049794667
     15        1          -0.002166501    0.005077106    0.000916382
     16        1          -0.008328530   -0.007936448    0.009823091
     17        1          -0.003012332    0.006850693    0.004507577
     18        1           0.003572317    0.005554658   -0.002974657
     19        1           0.002506963   -0.006786610   -0.000808773
 -------------------------------------------------------------------
 Cartesian Forces:  Max     0.087614084 RMS     0.030175874

 GradGradGradGradGradGradGradGradGradGradGradGradGradGradGradGradGradGrad
 Berny optimization.
 FormGI is forming the generalized inverse of G from B-inverse, IUseBI=4.
 Internal  Forces:  Max     0.105963308 RMS     0.021553307
 Search for a local minimum.
 Step number   1 out of a maximum of  102
 All quantities printed in internal units (Hartrees-Bohrs-Radians)
 Mixed Optimization -- RFO/linear search
 Second derivative matrix not updated -- first step.
 ITU=  0
     Eigenvalues ---    0.01640   0.01640   0.01995   0.02006   0.02027
     Eigenvalues ---    0.02048   0.02077   0.02082   0.02083   0.02088
     Eigenvalues ---    0.02106   0.02109   0.02110   0.02118   0.02141
     Eigenvalues ---    0.02152   0.04858   0.04858   0.16000   0.16000
     Eigenvalues ---    0.16000   0.16000   0.16000   0.22410   0.23354
     Eigenvalues ---    0.23503   0.23537   0.24629   0.24999   0.25000
     Eigenvalues ---    0.25000   0.34815   0.34868   0.34934   0.34953
     Eigenvalues ---    0.35129   0.38623   0.40430   0.40497   0.41398
     Eigenvalues ---    0.42242   0.43560   0.44684   0.45388   0.45599
     Eigenvalues ---    0.45684   0.45785   0.45929   0.46429   1.27383
     Eigenvalues ---    1.27460
 RFO step:  Lambda=-6.41718016D-02 EMin= 1.63991672D-02
 Linear search not attempted -- first point.
 Maximum step size (   0.300) exceeded in Quadratic search.
    -- Step size scaled by   0.827
 Iteration  1 RMS(Cart)=  0.04733546 RMS(Int)=  0.00114595
 Iteration  2 RMS(Cart)=  0.00219508 RMS(Int)=  0.00037547
 Iteration  3 RMS(Cart)=  0.00000215 RMS(Int)=  0.00037547
 Iteration  4 RMS(Cart)=  0.00000000 RMS(Int)=  0.00037547
 Variable       Old X    -DE/DX   Delta X   Delta X   Delta X     New X
                                 (Linear)    (Quad)   (Total)
    R1        2.19305   0.10596   0.00000   0.06546   0.06546   2.25851
    R2        2.70974   0.02721   0.00000   0.04804   0.04804   2.75778
    R3        2.64759   0.01318   0.00000   0.01931   0.01905   2.66664
    R4        2.65535   0.01680   0.00000   0.02708   0.02668   2.68203
    R5        2.05890   0.00544   0.00000   0.01090   0.01090   2.06979
    R6        2.63842   0.05168   0.00000   0.07949   0.07964   2.71806
    R7        2.63343   0.01857   0.00000   0.02896   0.02937   2.66280
    R8        2.05466   0.01230   0.00000   0.02448   0.02448   2.07915
    R9        2.64085   0.05553   0.00000   0.08924   0.08949   2.73034
   R10        2.67145   0.05565   0.00000   0.09614   0.09612   2.76757
   R11        2.64724   0.03441   0.00000   0.05634   0.05655   2.70378
   R12        2.65203   0.04068   0.00000   0.06579   0.06571   2.71774
   R13        2.64171  -0.00890   0.00000  -0.01554  -0.01575   2.62597
   R14        2.05752   0.00855   0.00000   0.01709   0.01709   2.07460
   R15        2.64107   0.04229   0.00000   0.06476   0.06464   2.70571
   R16        2.05783   0.00697   0.00000   0.01395   0.01395   2.07177
   R17        2.64418   0.01798   0.00000   0.02807   0.02815   2.67234
   R18        2.70883   0.02289   0.00000   0.04035   0.04035   2.74918
   R19        2.05976   0.00697   0.00000   0.01398   0.01398   2.07374
   R20        2.19327   0.10339   0.00000   0.06391   0.06391   2.25718
    A1        2.10588  -0.00517   0.00000  -0.01849  -0.01932   2.08656
    A2        2.08503   0.00380   0.00000   0.01372   0.01413   2.09917
    A3        2.09226   0.00137   0.00000   0.00476   0.00517   2.09742
    A4        2.09558  -0.00869   0.00000  -0.01993  -0.01981   2.07578
    A5        2.09615   0.00322   0.00000   0.01143   0.01156   2.10772
    A6        2.09145   0.00546   0.00000   0.00849   0.00823   2.09968
    A7        2.09193   0.02457   0.00000   0.06827   0.06867   2.16059
    A8        2.11309  -0.02104   0.00000  -0.06642  -0.06668   2.04641
    A9        2.07816  -0.00352   0.00000  -0.00178  -0.00205   2.07611
   A10        2.11132  -0.04448   0.00000  -0.11297  -0.11199   1.99933
   A11        2.08661   0.02444   0.00000   0.06692   0.06680   2.15341
   A12        2.10229  -0.00459   0.00000  -0.01786  -0.01801   2.08427
   A13        2.09427  -0.01985   0.00000  -0.04906  -0.04879   2.04549
   A14        2.07915  -0.00483   0.00000  -0.01221  -0.01288   2.06627
   A15        2.12612   0.00028   0.00000  -0.00267  -0.00232   2.12380
   A16        2.07790   0.00455   0.00000   0.01488   0.01520   2.09310
   A17        2.10506   0.00212   0.00000   0.00435   0.00399   2.10904
   A18        2.10370  -0.00153   0.00000  -0.00392  -0.00374   2.09996
   A19        2.07441  -0.00059   0.00000  -0.00045  -0.00027   2.07414
   A20        2.09743   0.00319   0.00000   0.00301   0.00261   2.10004
   A21        2.08350   0.00042   0.00000   0.00594   0.00614   2.08964
   A22        2.10225  -0.00362   0.00000  -0.00895  -0.00876   2.09349
   A23        2.09083   0.00149   0.00000   0.00000  -0.00010   2.09073
   A24        2.09658  -0.00168   0.00000  -0.00246  -0.00241   2.09417
   A25        2.09576   0.00019   0.00000   0.00245   0.00250   2.09827
   A26        2.10085   0.00850   0.00000   0.02683   0.02704   2.12789
   A27        2.09188  -0.00623   0.00000  -0.02075  -0.02089   2.07099
   A28        2.09045  -0.00227   0.00000  -0.00613  -0.00627   2.08418
   A29        3.13899   0.00723   0.00000   0.07418   0.07418   3.21317
   A30        3.14276  -0.00015   0.00000  -0.00110  -0.00110   3.14166
   A31        3.13484  -0.00232   0.00000  -0.02386  -0.02386   3.11098
   A32        3.14577  -0.00079   0.00000  -0.00578  -0.00578   3.13999
    D1        3.13059   0.00041   0.00000   0.00397   0.00291   3.13350
    D2       -0.00860   0.00069   0.00000   0.00660   0.00557  -0.00302
    D3       -0.00439   0.00064   0.00000   0.00598   0.00545   0.00106
    D4        3.13960   0.00092   0.00000   0.00862   0.00812  -3.13547
    D5        0.00464   0.00150   0.00000   0.01422   0.01405   0.01869
    D6       -3.13160   0.00144   0.00000   0.01366   0.01383  -3.11777
    D7        3.13960   0.00128   0.00000   0.01223   0.01154  -3.13204
    D8        0.00336   0.00122   0.00000   0.01167   0.01133   0.01468
    D9       -3.13400  -0.00280   0.00000  -0.02711  -0.02806   3.12112
   D10        0.00269  -0.00098   0.00000  -0.00958  -0.01019  -0.00750
   D11        0.00519  -0.00310   0.00000  -0.02979  -0.03082  -0.02563
   D12       -3.14130  -0.00128   0.00000  -0.01226  -0.01295   3.12893
   D13        0.00215   0.00333   0.00000   0.03236   0.03206   0.03421
   D14       -3.13465   0.00159   0.00000   0.01536   0.01408  -3.12056
   D15       -0.00607  -0.00114   0.00000  -0.01144  -0.01110  -0.01717
   D16        3.12954  -0.00113   0.00000  -0.01084  -0.01047   3.11907
   D17        0.00266  -0.00117   0.00000  -0.01157  -0.01116  -0.00851
   D18        3.13904  -0.00113   0.00000  -0.01107  -0.01100   3.12804
   D19       -3.13299  -0.00124   0.00000  -0.01227  -0.01187   3.13833
   D20        0.00340  -0.00120   0.00000  -0.01178  -0.01171  -0.00830
   D21       -3.13231   0.00098   0.00000   0.01031   0.01026  -3.12205
   D22        0.00346  -0.00025   0.00000  -0.00185  -0.00188   0.00158
   D23        0.00328   0.00115   0.00000   0.01131   0.01124   0.01451
   D24        3.13905  -0.00008   0.00000  -0.00084  -0.00090   3.13815
   D25        3.12953   0.00072   0.00000   0.00746   0.00734   3.13686
   D26       -0.00640   0.00113   0.00000   0.01130   0.01113   0.00474
   D27       -0.00672   0.00069   0.00000   0.00698   0.00720   0.00048
   D28        3.14055   0.00110   0.00000   0.01082   0.01100  -3.13164
   D29        0.00336  -0.00017   0.00000  -0.00170  -0.00170   0.00165
   D30       -3.13464   0.00008   0.00000   0.00069   0.00064  -3.13401
   D31        3.13937  -0.00058   0.00000  -0.00548  -0.00545   3.13392
   D32        0.00137  -0.00033   0.00000  -0.00310  -0.00312  -0.00174
   D33        0.00340   0.00011   0.00000   0.00101   0.00092   0.00432
   D34       -3.13261   0.00023   0.00000   0.00230   0.00219  -3.13042
   D35        3.14136  -0.00013   0.00000  -0.00137  -0.00139   3.13997
   D36        0.00535  -0.00002   0.00000  -0.00008  -0.00012   0.00523
   D37       -0.00670  -0.00063   0.00000  -0.00593  -0.00608  -0.01277
   D38        3.14071   0.00061   0.00000   0.00626   0.00620  -3.13627
   D39        3.12931  -0.00075   0.00000  -0.00724  -0.00736   3.12195
   D40       -0.00647   0.00049   0.00000   0.00495   0.00492  -0.00155
         Item               Value     Threshold  Converged?
 Maximum Force            0.105963     0.000450     NO 
 RMS     Force            0.021553     0.000300     NO 
 Maximum Displacement     0.222321     0.001800     NO 
 RMS     Displacement     0.046767     0.001200     NO 
 Predicted change in Energy=-3.418281D-02
 GradGradGradGradGradGradGradGradGradGradGradGradGradGradGradGradGradGrad

                          Input orientation:                          
 ---------------------------------------------------------------------
 Center     Atomic      Atomic             Coordinates (Angstroms)
 Number     Number       Type             X           Y           Z
 ---------------------------------------------------------------------
      1          7           0        2.410917   -5.334304    3.493178
      2          6           0        3.307671   -5.139659    2.727453
      3          6           0        4.853255   -3.712526    1.428215
      4          6           0        4.436740   -5.004788    1.812727
      5          6           0        5.121625   -6.166710    1.313052
      6          6           0        6.202084   -6.111747    0.410203
      7          6           0        6.612632   -4.775243    0.045853
      8          6           0        5.956097   -3.565829    0.547000
      9          6           0        6.437316   -2.270549    0.148255
     10          6           0        7.522270   -2.147276   -0.711205
     11          6           0        8.179892   -3.314131   -1.217200
     12          6           0        7.718926   -4.597875   -0.843973
     13          7           0       10.261987   -3.063385   -2.836005
     14          6           0        9.323768   -3.176474   -2.105482
     15          1           0        4.334992   -2.827882    1.813523
     16          1           0        4.762686   -7.148945    1.654958
     17          1           0        5.955914   -1.359648    0.527391
     18          1           0        7.878428   -1.150757   -0.997649
     19          1           0        8.230661   -5.487962   -1.231413
 ---------------------------------------------------------------------
                    Distance matrix (angstroms):
                    1          2          3          4          5
     1  N    0.000000
     2  C    1.195153   0.000000
     3  C    3.585980   2.472560   0.000000
     4  C    2.652632   1.459352   1.411125   0.000000
     5  C    3.576840   2.519085   2.471498   1.438334   0.000000
     6  C    4.947939   3.833044   2.934612   2.511747   1.409095
     7  C    5.463608   4.271597   2.477035   2.812302   2.401057
     8  C    4.937183   3.774318   1.419268   2.445631   2.836858
     9  C    6.065229   4.967769   2.495365   3.774763   4.274092
    10  C    7.345742   6.208186   3.761751   4.904703   5.100644
    11  C    7.716854   6.529271   4.268894   5.103917   4.887984
    12  C    6.894067   5.701559   3.762812   4.242214   3.722898
    13  N   10.337066   9.144697   6.918045   7.701510   7.298536
    14  C    9.153619   7.962711   5.723622   6.525192   6.187559
    15  H    3.578471   2.689789   1.095287   2.179283   3.466560
    16  H    3.493250   2.702692   3.445082   2.174521   1.100237
    17  H    6.095964   5.112918   2.750159   4.152953   4.941775
    18  H    8.219688   7.118956   4.647488   5.881920   6.172446
    19  H    7.497653   6.326908   4.651094   4.888158   4.074446
                    6          7          8          9         10
     6  C    0.000000
     7  C    1.444834   0.000000
     8  C    2.561430   1.464537   0.000000
     9  C    3.857298   2.512909   1.438165   0.000000
    10  C    4.326371   2.882150   2.459324   1.389602   0.000000
    11  C    3.792997   2.487259   2.849740   2.447468   1.431799
    12  C    2.483058   1.430781   2.471334   2.836104   2.462060
    13  N    6.026043   4.955134   5.498897   4.915537   3.586095
    14  C    4.968844   3.812422   4.304470   3.772483   2.499730
    15  H    4.029778   3.479155   2.185550   2.739253   4.122648
    16  H    2.167270   3.412621   3.935800   5.373387   6.183100
    17  H    4.759913   3.511331   2.206268   1.097831   2.146614
    18  H    5.422509   3.978446   3.451647   2.154955   1.096334
    19  H    2.683121   2.181146   3.468572   3.933360   3.454363
                   11         12         13         14         15
    11  C    0.000000
    12  C    1.414139   0.000000
    13  N    2.649250   3.576313   0.000000
    14  C    1.454801   2.487429   1.194449   0.000000
    15  H    4.919856   4.652545   7.536767   6.353582   0.000000
    16  H    5.884929   4.635943   8.191634   7.122142   4.345072
    17  H    3.436522   3.933823   5.723410   4.644924   2.537170
    18  H    2.195284   3.454227   3.566379   2.723937   4.824041
    19  H    2.174471   1.097378   3.546770   2.702195   5.614616
                   16         17         18         19
    16  H    0.000000
    17  H    6.017570   0.000000
    18  H    7.261021   2.462812   0.000000
    19  H    4.807999   5.030989   4.357759   0.000000
 Stoichiometry    C12H5N2(1-)
 Framework group  C1[X(C12H5N2)]
 Deg. of freedom    51
 Full point group                 C1      NOp   1
 Largest Abelian subgroup         C1      NOp   1
 Largest concise Abelian subgroup C1      NOp   1
                         Standard orientation:                         
 ---------------------------------------------------------------------
 Center     Atomic      Atomic             Coordinates (Angstroms)
 Number     Number       Type             X           Y           Z
 ---------------------------------------------------------------------
      1          7           0       -5.161601    0.361118    0.038630
      2          6           0       -3.978470    0.195714    0.003525
      3          6           0       -1.625798    0.955895   -0.021275
      4          6           0       -2.551339   -0.109164   -0.004093
      5          6           0       -2.089962   -1.471397    0.011982
      6          6           0       -0.729891   -1.838615   -0.018131
      7          6           0        0.192331   -0.726396   -0.022489
      8          6           0       -0.234709    0.674494   -0.018868
      9          6           0        0.748304    1.724187   -0.006739
     10          6           0        2.106073    1.428558    0.001080
     11          6           0        2.549530    0.067177   -0.004884
     12          6           0        1.600301   -0.980861   -0.024101
     13          7           0        5.141077   -0.481344    0.034245
     14          6           0        3.972621   -0.234084    0.017446
     15          1           0       -1.977635    1.993115   -0.027721
     16          1           0       -2.854674   -2.262025    0.037397
     17          1           0        0.435370    2.776402    0.005469
     18          1           0        2.839713    2.243082    0.017514
     19          1           0        1.946947   -2.022050   -0.023493
 ---------------------------------------------------------------------
 Rotational constants (GHZ):      2.6115218      0.3402494      0.3010554
 Standard basis: STO-3G (5D, 7F)
 There are    75 symmetry adapted cartesian basis functions of A   symmetry.
 There are    75 symmetry adapted basis functions of A   symmetry.
    75 basis functions,   225 primitive gaussians,    75 cartesian basis functions
    46 alpha electrons       46 beta electrons
       nuclear repulsion energy       683.2989015833 Hartrees.
 NAtoms=   19 NActive=   19 NUniq=   19 SFac= 1.00D+00 NAtFMM=   60 NAOKFM=F Big=F
 Integral buffers will be    131072 words long.
 Raffenetti 2 integral format.
 Two-electron integral symmetry is turned on.
 One-electron integrals computed using PRISM.
 NBasis=    75 RedAO= T EigKep=  1.73D-01  NBF=    75
 NBsUse=    75 1.00D-06 EigRej= -1.00D+00 NBFU=    75
 Initial guess from the checkpoint file:  "/tmp/bnp.472809.sequoia/Gau-22719.chk"
 B after Tr=     0.000000    0.000000    0.000000
         Rot=    1.000000    0.000011   -0.000002    0.000018 Ang=   0.00 deg.
 ExpMin= 1.69D-01 ExpMax= 9.91D+01 ExpMxC= 9.91D+01 IAcc=1 IRadAn=         1 AccDes= 0.00D+00
 Harris functional with IExCor=  402 and IRadAn=       1 diagonalized for initial guess.
 HarFok:  IExCor=  402 AccDes= 0.00D+00 IRadAn=         1 IDoV= 1 UseB2=F ITyADJ=14
 ICtDFT=  3500011 ScaDFX=  1.000000  1.000000  1.000000  1.000000
 FoFCou: FMM=F IPFlag=           0 FMFlag=      100000 FMFlg1=           0
         NFxFlg=           0 DoJE=T BraDBF=F KetDBF=T FulRan=T
         wScrn=  0.000000 ICntrl=     500 IOpCl=  0 I1Cent=   200000004 NGrid=           0
         NMat0=    1 NMatS0=      1 NMatT0=    0 NMatD0=    1 NMtDS0=    0 NMtDT0=    0
 Petite list used in FoFCou.
 Keep R1 ints in memory in canonical form, NReq=4993994.
 Requested convergence on RMS density matrix=1.00D-08 within 128 cycles.
 Requested convergence on MAX density matrix=1.00D-06.
 Requested convergence on             energy=1.00D-06.
 No special actions if energy rises.
 Integral accuracy reduced to 1.0D-05 until final iterations.
 Initial convergence to 1.0D-05 achieved.  Increase integral accuracy.
 SCF Done:  E(RB3LYP) =  -562.512133897     A.U. after   22 cycles
            NFock= 22  Conv=0.15D-08     -V/T= 2.0138
 Calling FoFJK, ICntrl=      2127 FMM=F ISym2X=0 I1Cent= 0 IOpClX= 0 NMat=1 NMatS=1 NMatT=0.
 ***** Axes restored to original set *****
 -------------------------------------------------------------------
 Center     Atomic                   Forces (Hartrees/Bohr)
 Number     Number              X              Y              Z
 -------------------------------------------------------------------
      1        7          -0.010842021   -0.001749728    0.008714536
      2        6           0.006234638    0.000769530   -0.005294293
      3        6          -0.003318147   -0.000125410    0.002717419
      4        6          -0.001375945    0.001366130    0.000570593
      5        6           0.003948290    0.009882057   -0.003121408
      6        6           0.011378980   -0.034403942   -0.009296276
      7        6          -0.010117647    0.009312763    0.008101592
      8        6           0.000979878    0.004424406   -0.000457858
      9        6           0.009741571    0.004247609   -0.007256966
     10        6          -0.010820297    0.007824644    0.008453235
     11        6           0.001934481   -0.012872472   -0.001255467
     12        6           0.003073476    0.011187259   -0.003187043
     13        7           0.010483373    0.001338287   -0.008126458
     14        6          -0.007594819   -0.000420124    0.005544554
     15        1          -0.000443255    0.001228005   -0.000098163
     16        1          -0.003889917   -0.000099511    0.004135344
     17        1          -0.001686349    0.000003897    0.001587241
     18        1           0.001872036    0.000250885   -0.001518864
     19        1           0.000441673   -0.002164286   -0.000211718
 -------------------------------------------------------------------
 Cartesian Forces:  Max     0.034403942 RMS     0.007412802

 GradGradGradGradGradGradGradGradGradGradGradGradGradGradGradGradGradGrad
 Berny optimization.
 Using GEDIIS/GDIIS optimizer.
 FormGI is forming the generalized inverse of G from B-inverse, IUseBI=4.
 Internal  Forces:  Max     0.020183239 RMS     0.004790283
 Search for a local minimum.
 Step number   2 out of a maximum of  102
 All quantities printed in internal units (Hartrees-Bohrs-Radians)
 Mixed Optimization -- RFO/linear search
 Update second derivatives using D2CorX and points    1    2
 DE= -3.21D-02 DEPred=-3.42D-02 R= 9.38D-01
 TightC=F SS=  1.41D+00  RLast= 3.09D-01 DXNew= 5.0454D-01 9.2701D-01
 Trust test= 9.38D-01 RLast= 3.09D-01 DXMaxT set to 5.05D-01
 ITU=  1  0
 Use linear search instead of GDIIS.
     Eigenvalues ---    0.01640   0.01680   0.02000   0.02007   0.02026
     Eigenvalues ---    0.02048   0.02078   0.02081   0.02084   0.02089
     Eigenvalues ---    0.02108   0.02109   0.02111   0.02118   0.02149
     Eigenvalues ---    0.02174   0.04858   0.04859   0.15822   0.15998
     Eigenvalues ---    0.15999   0.16000   0.16018   0.21884   0.22679
     Eigenvalues ---    0.23497   0.23524   0.24371   0.24765   0.24999
     Eigenvalues ---    0.25074   0.34810   0.34870   0.34938   0.34976
     Eigenvalues ---    0.35150   0.38872   0.40410   0.40567   0.41411
     Eigenvalues ---    0.42015   0.43589   0.44365   0.45080   0.45544
     Eigenvalues ---    0.45670   0.45873   0.46319   0.50652   1.27420
     Eigenvalues ---    1.32517
 RFO step:  Lambda=-3.94808558D-03 EMin= 1.63989610D-02
 Quartic linear search produced a step of  0.32983.
 Iteration  1 RMS(Cart)=  0.03946414 RMS(Int)=  0.00190966
 Iteration  2 RMS(Cart)=  0.00255615 RMS(Int)=  0.00030613
 Iteration  3 RMS(Cart)=  0.00000772 RMS(Int)=  0.00030608
 Iteration  4 RMS(Cart)=  0.00000000 RMS(Int)=  0.00030608
 Variable       Old X    -DE/DX   Delta X   Delta X   Delta X     New X
                                 (Linear)    (Quad)   (Total)
    R1        2.25851   0.01400   0.02159  -0.00723   0.01437   2.27288
    R2        2.75778   0.00580   0.01585   0.00209   0.01794   2.77571
    R3        2.66664   0.00015   0.00628  -0.00771  -0.00175   2.66489
    R4        2.68203   0.00241   0.00880  -0.00260   0.00575   2.68778
    R5        2.06979   0.00116   0.00359   0.00053   0.00412   2.07392
    R6        2.71806   0.00669   0.02627  -0.00962   0.01678   2.73483
    R7        2.66280   0.00945   0.00969   0.01690   0.02704   2.68984
    R8        2.07915   0.00264   0.00808   0.00125   0.00932   2.08847
    R9        2.73034   0.01959   0.02952   0.02659   0.05641   2.78675
   R10        2.76757   0.00658   0.03170  -0.01155   0.02010   2.78768
   R11        2.70378   0.00625   0.01865  -0.00118   0.01759   2.72137
   R12        2.71774   0.00631   0.02167  -0.00397   0.01764   2.73538
   R13        2.62597  -0.00596  -0.00519  -0.01195  -0.01726   2.60871
   R14        2.07460   0.00129   0.00564  -0.00117   0.00446   2.07906
   R15        2.70571   0.00886   0.02132   0.00230   0.02355   2.72926
   R16        2.07177   0.00123   0.00460  -0.00028   0.00432   2.07609
   R17        2.67234  -0.00399   0.00929  -0.02160  -0.01226   2.66008
   R18        2.74918   0.00393   0.01331  -0.00131   0.01199   2.76117
   R19        2.07374   0.00203   0.00461   0.00274   0.00735   2.08109
   R20        2.25718   0.01333   0.02108  -0.00740   0.01368   2.27086
    A1        2.08656  -0.00196  -0.00637  -0.00925  -0.01658   2.06998
    A2        2.09917   0.00149   0.00466   0.00708   0.01221   2.11137
    A3        2.09742   0.00047   0.00170   0.00224   0.00441   2.10183
    A4        2.07578  -0.00099  -0.00653   0.00491  -0.00145   2.07433
    A5        2.10772  -0.00101   0.00381  -0.00666  -0.00267   2.10504
    A6        2.09968   0.00200   0.00272   0.00176   0.00413   2.10381
    A7        2.16059   0.01060   0.02265   0.03497   0.05805   2.21864
    A8        2.04641  -0.01046  -0.02199  -0.04682  -0.06905   1.97736
    A9        2.07611  -0.00014  -0.00068   0.01194   0.01102   2.08713
   A10        1.99933  -0.02018  -0.03694  -0.06085  -0.09661   1.90271
   A11        2.15341   0.01112   0.02203   0.03718   0.05924   2.21265
   A12        2.08427  -0.00482  -0.00594  -0.02145  -0.02752   2.05676
   A13        2.04549  -0.00630  -0.01609  -0.01571  -0.03171   2.01377
   A14        2.06627  -0.00160  -0.00425  -0.00393  -0.00889   2.05738
   A15        2.12380   0.00019  -0.00077   0.00066   0.00026   2.12406
   A16        2.09310   0.00141   0.00501   0.00332   0.00863   2.10173
   A17        2.10904   0.00154   0.00131   0.00773   0.00878   2.11783
   A18        2.09996  -0.00276  -0.00123  -0.01929  -0.02041   2.07955
   A19        2.07414   0.00122  -0.00009   0.01164   0.01167   2.08581
   A20        2.10004  -0.00095   0.00086  -0.00872  -0.00813   2.09191
   A21        2.08964   0.00263   0.00202   0.01899   0.02113   2.11077
   A22        2.09349  -0.00168  -0.00289  -0.01022  -0.01299   2.08050
   A23        2.09073  -0.00038  -0.00003  -0.00402  -0.00412   2.08661
   A24        2.09417  -0.00068  -0.00080  -0.00165  -0.00241   2.09176
   A25        2.09827   0.00106   0.00083   0.00568   0.00654   2.10481
   A26        2.12789   0.00469   0.00892   0.01743   0.02646   2.15434
   A27        2.07099  -0.00325  -0.00689  -0.01317  -0.02013   2.05086
   A28        2.08418  -0.00144  -0.00207  -0.00415  -0.00628   2.07789
   A29        3.21317  -0.00121   0.02447  -0.13968  -0.11521   3.09795
   A30        3.14166   0.00019  -0.00036   0.00538   0.00502   3.14668
   A31        3.11098   0.00070  -0.00787   0.06529   0.05742   3.16840
   A32        3.13999   0.00005  -0.00191   0.00431   0.00240   3.14239
    D1        3.13350   0.00002   0.00096   0.00781   0.00824  -3.14144
    D2       -0.00302   0.00004   0.00184   0.00558   0.00666   0.00364
    D3        0.00106  -0.00001   0.00180  -0.00101   0.00035   0.00141
    D4       -3.13547   0.00001   0.00268  -0.00324  -0.00122  -3.13669
    D5        0.01869   0.00032   0.00463   0.00639   0.01046   0.02915
    D6       -3.11777   0.00016   0.00456  -0.00484  -0.00056  -3.11833
    D7       -3.13204   0.00036   0.00381   0.01522   0.01834  -3.11370
    D8        0.01468   0.00020   0.00374   0.00400   0.00733   0.02201
    D9        3.12112  -0.00075  -0.00926  -0.01210  -0.02199   3.09913
   D10       -0.00750  -0.00061  -0.00336  -0.02001  -0.02368  -0.03118
   D11       -0.02563  -0.00078  -0.01017  -0.00980  -0.02038  -0.04601
   D12        3.12893  -0.00063  -0.00427  -0.01771  -0.02208   3.10686
   D13        0.03421   0.00036   0.01058  -0.00068   0.00995   0.04415
   D14       -3.12056   0.00014   0.00465   0.00695   0.01121  -3.10935
   D15       -0.01717   0.00018  -0.00366   0.01394   0.01048  -0.00669
   D16        3.11907   0.00025  -0.00345   0.01689   0.01347   3.13254
   D17       -0.00851  -0.00037  -0.00368  -0.01664  -0.02026  -0.02876
   D18        3.12804  -0.00022  -0.00363  -0.00563  -0.00941   3.11863
   D19        3.13833  -0.00044  -0.00391  -0.01950  -0.02319   3.11514
   D20       -0.00830  -0.00029  -0.00386  -0.00849  -0.01234  -0.02065
   D21       -3.12205   0.00002   0.00338  -0.00341   0.00026  -3.12179
   D22        0.00158   0.00001  -0.00062   0.00406   0.00364   0.00522
   D23        0.01451   0.00013   0.00371  -0.00048   0.00319   0.01771
   D24        3.13815   0.00012  -0.00030   0.00699   0.00657  -3.13847
   D25        3.13686   0.00044   0.00242   0.02064   0.02311  -3.12321
   D26        0.00474   0.00028   0.00367   0.00962   0.01334   0.01807
   D27        0.00048   0.00029   0.00238   0.00927   0.01187   0.01235
   D28       -3.13164   0.00013   0.00363  -0.00176   0.00209  -3.12955
   D29        0.00165  -0.00003  -0.00056  -0.00054  -0.00107   0.00058
   D30       -3.13401  -0.00015   0.00021  -0.00871  -0.00862   3.14056
   D31        3.13392   0.00010  -0.00180   0.01016   0.00857  -3.14070
   D32       -0.00174  -0.00002  -0.00103   0.00199   0.00102  -0.00072
   D33        0.00432  -0.00016   0.00030  -0.00867  -0.00841  -0.00409
   D34       -3.13042  -0.00022   0.00072  -0.01215  -0.01144   3.14133
   D35        3.13997  -0.00003  -0.00046  -0.00038  -0.00087   3.13909
   D36        0.00523  -0.00009  -0.00004  -0.00386  -0.00391   0.00132
   D37       -0.01277   0.00007  -0.00200   0.00904   0.00699  -0.00578
   D38       -3.13627   0.00009   0.00205   0.00160   0.00369  -3.13258
   D39        3.12195   0.00012  -0.00243   0.01250   0.01001   3.13196
   D40       -0.00155   0.00015   0.00162   0.00506   0.00671   0.00516
         Item               Value     Threshold  Converged?
 Maximum Force            0.020183     0.000450     NO 
 RMS     Force            0.004790     0.000300     NO 
 Maximum Displacement     0.159807     0.001800     NO 
 RMS     Displacement     0.039737     0.001200     NO 
 Predicted change in Energy=-3.742306D-03
 GradGradGradGradGradGradGradGradGradGradGradGradGradGradGradGradGradGrad

                          Input orientation:                          
 ---------------------------------------------------------------------
 Center     Atomic      Atomic             Coordinates (Angstroms)
 Number     Number       Type             X           Y           Z
 ---------------------------------------------------------------------
      1          7           0        2.338028   -5.249738    3.427310
      2          6           0        3.300229   -5.172578    2.709789
      3          6           0        4.852853   -3.715812    1.440021
      4          6           0        4.449903   -5.015831    1.809130
      5          6           0        5.160084   -6.174755    1.312179
      6          6           0        6.254115   -6.186562    0.401669
      7          6           0        6.615789   -4.796643    0.066996
      8          6           0        5.966626   -3.570181    0.567516
      9          6           0        6.454842   -2.267292    0.168286
     10          6           0        7.523094   -2.134656   -0.695968
     11          6           0        8.174706   -3.312330   -1.219783
     12          6           0        7.715664   -4.587302   -0.838713
     13          7           0       10.234860   -3.049978   -2.886392
     14          6           0        9.305162   -3.171717   -2.134797
     15          1           0        4.322296   -2.831868    1.816305
     16          1           0        4.765819   -7.130047    1.703805
     17          1           0        5.962192   -1.366310    0.563189
     18          1           0        7.887586   -1.142444   -0.995339
     19          1           0        8.224011   -5.479647   -1.236323
 ---------------------------------------------------------------------
                    Distance matrix (angstroms):
                    1          2          3          4          5
     1  N    0.000000
     2  C    1.202755   0.000000
     3  C    3.553391   2.478935   0.000000
     4  C    2.670811   1.468845   1.410198   0.000000
     5  C    3.646016   2.533127   2.481357   1.447211   0.000000
     6  C    5.036654   3.883429   3.024287   2.570358   1.423402
     7  C    5.458593   4.256597   2.482204   2.788214   2.359820
     8  C    4.915898   3.777126   1.422309   2.435562   2.826453
     9  C    6.038573   4.985128   2.506370   3.777117   4.272370
    10  C    7.320524   6.217776   3.767319   4.901142   5.093022
    11  C    7.708166   6.531660   4.274583   5.094152   4.867469
    12  C    6.896139   5.694776   3.761357   4.226098   3.698287
    13  N   10.347064   9.160337   6.937376   7.705728   7.290101
    14  C    9.154023   7.970738   5.735714   6.521415   6.171025
    15  H    3.518345   2.705893   1.097469   2.187700   3.482948
    16  H    3.521392   2.644172   3.425516   2.140282   1.105170
    17  H    6.034796   5.116797   2.742194   4.142269   4.932089
    18  H    8.199224   7.142394   4.665062   5.889468   6.171552
    19  H    7.513130   6.317414   4.651735   4.871735   4.045453
                    6          7          8          9         10
     6  C    0.000000
     7  C    1.474683   0.000000
     8  C    2.637348   1.475175   0.000000
     9  C    3.931339   2.536489   1.447500   0.000000
    10  C    4.385550   2.914016   2.465708   1.380468   0.000000
    11  C    3.818243   2.507829   2.852462   2.444744   1.444263
    12  C    2.496458   1.440089   2.463970   2.825980   2.464331
    13  N    6.041178   4.987085   5.515244   4.922621   3.604087
    14  C    4.983155   3.836795   4.313593   3.774453   2.514256
    15  H    4.121540   3.490062   2.192807   2.753628   4.128285
    16  H    2.191061   3.397986   3.925015   5.371872   6.189945
    17  H    4.831784   3.527120   2.203880   1.100192   2.147615
    18  H    5.482971   4.012379   3.467925   2.161495   1.098618
    19  H    2.657675   2.179797   3.463478   3.927099   3.460091
                   11         12         13         14         15
    11  C    0.000000
    12  C    1.407653   0.000000
    13  N    2.662827   3.592034   0.000000
    14  C    1.461148   2.492031   1.201689   0.000000
    15  H    4.928462   4.652485   7.557867   6.368332   0.000000
    16  H    5.894306   4.650972   8.223581   7.142050   4.322467
    17  H    3.444009   3.926166   5.743696   4.659835   2.531288
    18  H    2.200276   3.452699   3.567137   2.725038   4.844666
    19  H    2.167941   1.101268   3.559428   2.702347   5.617175
                   16         17         18         19
    16  H    0.000000
    17  H    5.996081   0.000000
    18  H    7.272015   2.487221   0.000000
    19  H    4.829831   5.027286   4.356900   0.000000
 Stoichiometry    C12H5N2(1-)
 Framework group  C1[X(C12H5N2)]
 Deg. of freedom    51
 Full point group                 C1      NOp   1
 Largest Abelian subgroup         C1      NOp   1
 Largest concise Abelian subgroup C1      NOp   1
                         Standard orientation:                         
 ---------------------------------------------------------------------
 Center     Atomic      Atomic             Coordinates (Angstroms)
 Number     Number       Type             X           Y           Z
 ---------------------------------------------------------------------
      1          7           0       -5.154597    0.438785   -0.046832
      2          6           0       -3.986248    0.155985   -0.006762
      3          6           0       -1.638802    0.952608   -0.004917
      4          6           0       -2.545136   -0.127688    0.008430
      5          6           0       -2.062907   -1.491806    0.040955
      6          6           0       -0.707232   -1.924586    0.010640
      7          6           0        0.174429   -0.742532    0.000164
      8          6           0       -0.244553    0.671859    0.009708
      9          6           0        0.744075    1.729028    0.026001
     10          6           0        2.095685    1.448342    0.018468
     11          6           0        2.544921    0.075957   -0.006858
     12          6           0        1.597145   -0.964750   -0.018651
     13          7           0        5.153406   -0.459070   -0.021165
     14          6           0        3.975570   -0.220906   -0.015166
     15          1           0       -1.996695    1.989889   -0.024950
     16          1           0       -2.874065   -2.241202    0.083717
     17          1           0        0.408251    2.776550    0.044465
     18          1           0        2.840345    2.255999    0.029967
     19          1           0        1.948824   -2.008301   -0.029289
 ---------------------------------------------------------------------
 Rotational constants (GHZ):      2.5380664      0.3403981      0.3001766
 Standard basis: STO-3G (5D, 7F)
 There are    75 symmetry adapted cartesian basis functions of A   symmetry.
 There are    75 symmetry adapted basis functions of A   symmetry.
    75 basis functions,   225 primitive gaussians,    75 cartesian basis functions
    46 alpha electrons       46 beta electrons
       nuclear repulsion energy       680.8319944872 Hartrees.
 NAtoms=   19 NActive=   19 NUniq=   19 SFac= 1.00D+00 NAtFMM=   60 NAOKFM=F Big=F
 Integral buffers will be    131072 words long.
 Raffenetti 2 integral format.
 Two-electron integral symmetry is turned on.
 One-electron integrals computed using PRISM.
 NBasis=    75 RedAO= T EigKep=  1.77D-01  NBF=    75
 NBsUse=    75 1.00D-06 EigRej= -1.00D+00 NBFU=    75
 Initial guess from the checkpoint file:  "/tmp/bnp.472809.sequoia/Gau-22719.chk"
 B after Tr=     0.000000    0.000000    0.000000
         Rot=    1.000000   -0.000005   -0.000007   -0.000876 Ang=  -0.10 deg.
 ExpMin= 1.69D-01 ExpMax= 9.91D+01 ExpMxC= 9.91D+01 IAcc=1 IRadAn=         1 AccDes= 0.00D+00
 Harris functional with IExCor=  402 and IRadAn=       1 diagonalized for initial guess.
 HarFok:  IExCor=  402 AccDes= 0.00D+00 IRadAn=         1 IDoV= 1 UseB2=F ITyADJ=14
 ICtDFT=  3500011 ScaDFX=  1.000000  1.000000  1.000000  1.000000
 FoFCou: FMM=F IPFlag=           0 FMFlag=      100000 FMFlg1=           0
         NFxFlg=           0 DoJE=T BraDBF=F KetDBF=T FulRan=T
         wScrn=  0.000000 ICntrl=     500 IOpCl=  0 I1Cent=   200000004 NGrid=           0
         NMat0=    1 NMatS0=      1 NMatT0=    0 NMatD0=    1 NMtDS0=    0 NMtDT0=    0
 Petite list used in FoFCou.
 Keep R1 ints in memory in canonical form, NReq=4993994.
 Requested convergence on RMS density matrix=1.00D-08 within 128 cycles.
 Requested convergence on MAX density matrix=1.00D-06.
 Requested convergence on             energy=1.00D-06.
 No special actions if energy rises.
 Integral accuracy reduced to 1.0D-05 until final iterations.
 Initial convergence to 1.0D-05 achieved.  Increase integral accuracy.
 SCF Done:  E(RB3LYP) =  -562.515484646     A.U. after   18 cycles
            NFock= 18  Conv=0.86D-08     -V/T= 2.0140
 Calling FoFJK, ICntrl=      2127 FMM=F ISym2X=0 I1Cent= 0 IOpClX= 0 NMat=1 NMatS=1 NMatT=0.
 ***** Axes restored to original set *****
 -------------------------------------------------------------------
 Center     Atomic                   Forces (Hartrees/Bohr)
 Number     Number              X              Y              Z
 -------------------------------------------------------------------
      1        7           0.005029501   -0.002911256   -0.002197842
      2        6          -0.004730220    0.006195924    0.000349243
      3        6          -0.001635384    0.001448038    0.001400045
      4        6           0.002744367   -0.005327737   -0.000257134
      5        6          -0.005519414    0.001412465    0.004322412
      6        6           0.001469197   -0.004124471   -0.000365509
      7        6          -0.000597661    0.009538801   -0.000566166
      8        6           0.001397325   -0.004034244   -0.001188109
      9        6           0.000041364   -0.000248829   -0.000223430
     10        6           0.000192920    0.001878105   -0.000333678
     11        6           0.000903385   -0.002651887   -0.000746312
     12        6           0.001679097    0.000443128   -0.000823462
     13        7          -0.002847853   -0.000395268    0.002251676
     14        6           0.001807178    0.000789217   -0.001466027
     15        1           0.000298117   -0.000239662   -0.000028117
     16        1           0.000531835   -0.000416347   -0.000772631
     17        1          -0.000270275   -0.000953273    0.000233475
     18        1           0.000000303   -0.000664796    0.000157774
     19        1          -0.000493783    0.000262095    0.000253792
 -------------------------------------------------------------------
 Cartesian Forces:  Max     0.009538801 RMS     0.002521129

 GradGradGradGradGradGradGradGradGradGradGradGradGradGradGradGradGradGrad
 Berny optimization.
 Using GEDIIS/GDIIS optimizer.
 FormGI is forming the generalized inverse of G from B-inverse, IUseBI=4.
 Internal  Forces:  Max     0.007521527 RMS     0.001431860
 Search for a local minimum.
 Step number   3 out of a maximum of  102
 All quantities printed in internal units (Hartrees-Bohrs-Radians)
 Mixed Optimization -- RFO/linear search
 Update second derivatives using D2CorX and points    1    2    3
 DE= -3.35D-03 DEPred=-3.74D-03 R= 8.95D-01
 TightC=F SS=  1.41D+00  RLast= 2.36D-01 DXNew= 8.4853D-01 7.0797D-01
 Trust test= 8.95D-01 RLast= 2.36D-01 DXMaxT set to 7.08D-01
 ITU=  1  1  0
 Use linear search instead of GDIIS.
     Eigenvalues ---    0.01636   0.01909   0.02006   0.02018   0.02038
     Eigenvalues ---    0.02058   0.02078   0.02083   0.02088   0.02097
     Eigenvalues ---    0.02107   0.02109   0.02118   0.02133   0.02164
     Eigenvalues ---    0.02204   0.04858   0.04860   0.15463   0.16000
     Eigenvalues ---    0.16000   0.16005   0.16134   0.20129   0.22591
     Eigenvalues ---    0.23485   0.23656   0.24251   0.24751   0.25035
     Eigenvalues ---    0.25117   0.34808   0.34869   0.34941   0.34988
     Eigenvalues ---    0.35096   0.38397   0.39235   0.40478   0.41006
     Eigenvalues ---    0.41670   0.43549   0.43769   0.45011   0.45541
     Eigenvalues ---    0.45690   0.46010   0.46300   0.51123   1.27420
     Eigenvalues ---    1.35631
 RFO step:  Lambda=-2.61101905D-03 EMin= 1.63559481D-02
 Quartic linear search produced a step of -0.12913.
 Iteration  1 RMS(Cart)=  0.04187194 RMS(Int)=  0.01416400
 Iteration  2 RMS(Cart)=  0.02818514 RMS(Int)=  0.00191702
 Iteration  3 RMS(Cart)=  0.00189526 RMS(Int)=  0.00002313
 Iteration  4 RMS(Cart)=  0.00000278 RMS(Int)=  0.00002308
 Iteration  5 RMS(Cart)=  0.00000000 RMS(Int)=  0.00002308
 Variable       Old X    -DE/DX   Delta X   Delta X   Delta X     New X
                                 (Linear)    (Quad)   (Total)
    R1        2.27288  -0.00515  -0.00186   0.00199   0.00013   2.27301
    R2        2.77571  -0.00171  -0.00232   0.00359   0.00127   2.77698
    R3        2.66489   0.00034   0.00023  -0.00057  -0.00033   2.66456
    R4        2.68778   0.00103  -0.00074   0.00393   0.00320   2.69097
    R5        2.07392  -0.00036  -0.00053   0.00078   0.00025   2.07417
    R6        2.73483  -0.00281  -0.00217   0.00114  -0.00103   2.73380
    R7        2.68984   0.00322  -0.00349   0.01800   0.01450   2.70434
    R8        2.08847  -0.00010  -0.00120   0.00355   0.00235   2.09082
    R9        2.78675   0.00485  -0.00728   0.03340   0.02610   2.81285
   R10        2.78768  -0.00422  -0.00260  -0.00130  -0.00390   2.78378
   R11        2.72137   0.00072  -0.00227   0.00838   0.00611   2.72748
   R12        2.73538  -0.00055  -0.00228   0.00575   0.00347   2.73885
   R13        2.60871   0.00060   0.00223  -0.00620  -0.00397   2.60474
   R14        2.07906  -0.00057  -0.00058   0.00030  -0.00028   2.07879
   R15        2.72926   0.00084  -0.00304   0.01149   0.00845   2.73771
   R16        2.07609  -0.00064  -0.00056   0.00011  -0.00045   2.07563
   R17        2.66008  -0.00149   0.00158  -0.00855  -0.00697   2.65311
   R18        2.76117  -0.00126  -0.00155   0.00204   0.00049   2.76166
   R19        2.08109  -0.00053  -0.00095   0.00172   0.00077   2.08187
   R20        2.27086  -0.00365  -0.00177   0.00274   0.00098   2.27184
    A1        2.06998  -0.00015   0.00214  -0.00894  -0.00678   2.06320
    A2        2.11137   0.00014  -0.00158   0.00646   0.00487   2.11624
    A3        2.10183   0.00002  -0.00057   0.00248   0.00190   2.10373
    A4        2.07433  -0.00122   0.00019  -0.00451  -0.00434   2.06999
    A5        2.10504   0.00001   0.00035  -0.00116  -0.00083   2.10421
    A6        2.10381   0.00120  -0.00053   0.00569   0.00516   2.10898
    A7        2.21864  -0.00125  -0.00750   0.02063   0.01312   2.23176
    A8        1.97736   0.00165   0.00892  -0.02190  -0.01298   1.96438
    A9        2.08713  -0.00041  -0.00142   0.00126  -0.00016   2.08697
   A10        1.90271   0.00018   0.01248  -0.03902  -0.02658   1.87613
   A11        2.21265  -0.00100  -0.00765   0.02233   0.01467   2.22733
   A12        2.05676  -0.00050   0.00355  -0.01342  -0.00985   2.04690
   A13        2.01377   0.00150   0.00410  -0.00892  -0.00483   2.00894
   A14        2.05738   0.00102   0.00115  -0.00066   0.00050   2.05788
   A15        2.12406  -0.00042  -0.00003  -0.00047  -0.00051   2.12356
   A16        2.10173  -0.00061  -0.00111   0.00111  -0.00001   2.10172
   A17        2.11783   0.00053  -0.00113   0.00581   0.00469   2.12251
   A18        2.07955  -0.00114   0.00264  -0.01476  -0.01213   2.06742
   A19        2.08581   0.00061  -0.00151   0.00895   0.00744   2.09325
   A20        2.09191  -0.00054   0.00105  -0.00507  -0.00401   2.08790
   A21        2.11077   0.00047  -0.00273   0.01105   0.00832   2.11909
   A22        2.08050   0.00007   0.00168  -0.00598  -0.00431   2.07619
   A23        2.08661  -0.00049   0.00053  -0.00280  -0.00226   2.08435
   A24        2.09176  -0.00047   0.00031  -0.00304  -0.00273   2.08902
   A25        2.10481   0.00095  -0.00084   0.00585   0.00500   2.10981
   A26        2.15434  -0.00039  -0.00342   0.00986   0.00643   2.16077
   A27        2.05086  -0.00010   0.00260  -0.00945  -0.00685   2.04401
   A28        2.07789   0.00049   0.00081  -0.00033   0.00048   2.07837
   A29        3.09795   0.00752   0.01488   0.30190   0.31678   3.41473
   A30        3.14668  -0.00004  -0.00065   0.00146   0.00081   3.14750
   A31        3.16840  -0.00206  -0.00741  -0.07209  -0.07950   3.08890
   A32        3.14239  -0.00007  -0.00031  -0.00009  -0.00040   3.14200
    D1       -3.14144   0.00033  -0.00106   0.01499   0.01399  -3.12745
    D2        0.00364   0.00016  -0.00086   0.00726   0.00648   0.01012
    D3        0.00141   0.00021  -0.00005   0.00691   0.00689   0.00831
    D4       -3.13669   0.00003   0.00016  -0.00083  -0.00062  -3.13731
    D5        0.02915  -0.00013  -0.00135  -0.00265  -0.00397   0.02518
    D6       -3.11833  -0.00012   0.00007  -0.00610  -0.00602  -3.12435
    D7       -3.11370  -0.00001  -0.00237   0.00539   0.00308  -3.11063
    D8        0.02201   0.00000  -0.00095   0.00194   0.00102   0.02303
    D9        3.09913  -0.00004   0.00284  -0.01094  -0.00803   3.09110
   D10       -0.03118   0.00001   0.00306  -0.00977  -0.00669  -0.03787
   D11       -0.04601   0.00014   0.00263  -0.00307  -0.00038  -0.04639
   D12        3.10686   0.00019   0.00285  -0.00191   0.00096   3.10782
   D13        0.04415  -0.00028  -0.00128  -0.00669  -0.00796   0.03620
   D14       -3.10935  -0.00032  -0.00145  -0.00804  -0.00944  -3.11880
   D15       -0.00669   0.00019  -0.00135   0.01236   0.01097   0.00428
   D16        3.13254   0.00010  -0.00174   0.00924   0.00746   3.14000
   D17       -0.02876   0.00000   0.00262  -0.00820  -0.00563  -0.03439
   D18        3.11863  -0.00001   0.00122  -0.00479  -0.00361   3.11503
   D19        3.11514   0.00010   0.00299  -0.00514  -0.00218   3.11297
[...]
 ! D15   D(5,6,7,8)              0.0007         -DE/DX =    0.0                 !
 ! D16   D(5,6,7,12)          -180.0051         -DE/DX =    0.0                 !
 ! D17   D(6,7,8,3)             -0.004          -DE/DX =    0.0                 !
 ! D18   D(6,7,8,9)           -180.0001         -DE/DX =    0.0                 !
 ! D19   D(12,7,8,3)          -179.9982         -DE/DX =    0.0                 !
 ! D20   D(12,7,8,9)             0.0057         -DE/DX =    0.0                 !
 ! D21   D(6,7,12,11)          180.0024         -DE/DX =    0.0                 !
 ! D22   D(6,7,12,19)            0.0015         -DE/DX =    0.0                 !
 ! D23   D(8,7,12,11)           -0.0028         -DE/DX =    0.0                 !
 ! D24   D(8,7,12,19)          179.9962         -DE/DX =    0.0                 !
 ! D25   D(3,8,9,10)           180.001          -DE/DX =    0.0                 !
 ! D26   D(3,8,9,17)            -0.0007         -DE/DX =    0.0                 !
 ! D27   D(7,8,9,10)            -0.0031         -DE/DX =    0.0                 !
 ! D28   D(7,8,9,17)           179.9952         -DE/DX =    0.0                 !
 ! D29   D(8,9,10,11)           -0.0028         -DE/DX =    0.0                 !
 ! D30   D(8,9,10,18)         -180.0017         -DE/DX =    0.0                 !
 ! D31   D(17,9,10,11)         179.9989         -DE/DX =    0.0                 !
 ! D32   D(17,9,10,18)           0.0001         -DE/DX =    0.0                 !
 ! D33   D(9,10,11,12)           0.0058         -DE/DX =    0.0                 !
 ! D34   D(9,10,11,14)        -179.9966         -DE/DX =    0.0                 !
 ! D35   D(18,10,11,12)       -179.9953         -DE/DX =    0.0                 !
 ! D36   D(18,10,11,14)          0.0023         -DE/DX =    0.0                 !
 ! D37   D(10,11,12,7)          -0.0029         -DE/DX =    0.0                 !
 ! D38   D(10,11,12,19)        179.9981         -DE/DX =    0.0                 !
 ! D39   D(14,11,12,7)         179.9995         -DE/DX =    0.0                 !
 ! D40   D(14,11,12,19)          0.0005         -DE/DX =    0.0                 !
 --------------------------------------------------------------------------------
 GradGradGradGradGradGradGradGradGradGradGradGradGradGradGradGradGradGrad

                          Input orientation:                          
 ---------------------------------------------------------------------
 Center     Atomic      Atomic             Coordinates (Angstroms)
 Number     Number       Type             X           Y           Z
 ---------------------------------------------------------------------
      1          7           0        2.382992   -5.334055    3.467068
      2          6           0        3.308526   -5.155925    2.723495
      3          6           0        4.860326   -3.702631    1.449241
      4          6           0        4.447095   -5.001852    1.810353
      5          6           0        5.126526   -6.165261    1.295235
      6          6           0        6.243317   -6.182997    0.403374
      7          6           0        6.615736   -4.784411    0.072537
      8          6           0        5.965596   -3.564897    0.562976
      9          6           0        6.447634   -2.264434    0.146893
     10          6           0        7.519770   -2.134724   -0.712738
     11          6           0        8.184391   -3.317058   -1.215466
     12          6           0        7.728415   -4.586821   -0.821015
     13          7           0       10.248631   -3.049730   -2.870792
     14          6           0        9.317544   -3.174947   -2.124041
     15          1           0        4.345815   -2.816040    1.839068
     16          1           0        4.707788   -7.122981    1.652322
     17          1           0        5.942103   -1.366083    0.529329
     18          1           0        7.880230   -1.145733   -1.024307
     19          1           0        8.235427   -5.485107   -1.204653
 ---------------------------------------------------------------------
                    Distance matrix (angstroms):
                    1          2          3          4          5
     1  N    0.000000
     2  C    1.200518   0.000000
     3  C    3.587528   2.478684   0.000000
     4  C    2.667506   1.467620   1.410367   0.000000
     5  C    3.596490   2.522659   2.481759   1.442391   0.000000
     6  C    5.000903   3.879541   3.026337   2.569262   1.429319
     7  C    5.453537   4.254790   2.479319   2.787523   2.370545
     8  C    4.939507   3.776141   1.423397   2.434468   2.828804
     9  C    6.080086   4.985338   2.506804   3.776600   4.275566
    10  C    7.354794   6.218515   3.768969   4.901810   5.099490
    11  C    7.723383   6.532297   4.277702   5.095242   4.875081
    12  C    6.893444   5.694107   3.763215   4.226512   3.706726
    13  N   10.356394   9.159540   6.937059   7.705953   7.300567
    14  C    9.165711   7.970645   5.737036   6.522140   6.180458
    15  H    3.583778   2.707996   1.096691   2.188345   3.481744
    16  H    3.449381   2.640957   3.429767   2.142924   1.104572
    17  H    6.086246   5.110088   2.734216   4.134596   4.927868
    18  H    8.242216   7.143398   4.666475   5.889937   6.177283
    19  H    7.489912   6.309759   4.648836   4.865722   4.046889
                    6          7          8          9         10
     6  C    0.000000
     7  C    1.484652   0.000000
     8  C    2.637622   1.466433   0.000000
     9  C    3.932259   2.526672   1.447995   0.000000
    10  C    4.389026   2.907710   2.467448   1.380314   0.000000
    11  C    3.821258   2.504547   2.854353   2.445479   1.446503
    12  C    2.500484   1.440671   2.463187   2.823248   2.463339
    13  N    6.048145   4.987006   5.513669   4.916370   3.597376
    14  C    4.988693   3.836026   4.313662   3.771281   2.511142
    15  H    4.122879   3.485349   2.193830   2.754154   4.129152
    16  H    2.191185   3.406596   3.927940   5.375765   6.195439
    17  H    4.827965   3.513887   2.199197   1.099479   2.150017
    18  H    5.485598   4.005245   3.469531   2.162298   1.097775
    19  H    2.653545   2.178437   3.458880   3.923725   3.461100
                   11         12         13         14         15
    11  C    0.000000
    12  C    1.405633   0.000000
    13  N    2.659446   3.593845   0.000000
    14  C    1.459363   2.493310   1.200100   0.000000
    15  H    4.931112   4.653352   7.555172   6.368134   0.000000
    16  H    5.898816   4.655501   8.231092   7.148268   4.326157
    17  H    3.446515   3.922689   5.739484   4.658966   2.523079
    18  H    2.200843   3.450429   3.555846   2.719007   4.845712
    19  H    2.168677   1.100526   3.572124   2.711658   5.614021
                   16         17         18         19
    16  H    0.000000
    17  H    5.993873   0.000000
    18  H    7.277103   2.493727   0.000000
    19  H    4.825886   5.023185   4.357621   0.000000
 Stoichiometry    C12H5N2(1-)
 Framework group  C1[X(C12H5N2)]
 Deg. of freedom    51
 Full point group                 C1      NOp   1
 Largest Abelian subgroup         C1      NOp   1
 Largest concise Abelian subgroup C1      NOp   1
                         Standard orientation:                         
 ---------------------------------------------------------------------
 Center     Atomic      Atomic             Coordinates (Angstroms)
 Number     Number       Type             X           Y           Z
 ---------------------------------------------------------------------
      1          7           0       -5.168429    0.374155   -0.000019
      2          6           0       -3.982424    0.188041    0.000015
      3          6           0       -1.631151    0.972507    0.000036
      4          6           0       -2.543889   -0.102689    0.000084
      5          6           0       -2.079764   -1.468368    0.000047
      6          6           0       -0.721669   -1.913936   -0.000047
      7          6           0        0.172430   -0.728704   -0.000065
      8          6           0       -0.238339    0.679023    0.000016
      9          6           0        0.758786    1.728990   -0.000012
     10          6           0        2.108637    1.440601   -0.000052
     11          6           0        2.548670    0.062652   -0.000005
     12          6           0        1.593059   -0.968178   -0.000041
     13          7           0        5.153023   -0.475862    0.000061
     14          6           0        3.976860   -0.237367    0.000029
     15          1           0       -1.980792    2.011969   -0.000032
     16          1           0       -2.891768   -2.217187   -0.000134
     17          1           0        0.423766    2.776184   -0.000031
     18          1           0        2.859484    2.241437   -0.000102
     19          1           0        1.929917   -2.015882   -0.000036
 ---------------------------------------------------------------------
 Rotational constants (GHZ):      2.5601235      0.3396309      0.2998520

 **********************************************************************

            Population analysis using the SCF density.

 **********************************************************************

 Orbital symmetries:
       Occupied  (A) (A) (A) (A) (A) (A) (A) (A) (A) (A) (A) (A)
                 (A) (A) (A) (A) (A) (A) (A) (A) (A) (A) (A) (A)
                 (A) (A) (A) (A) (A) (A) (A) (A) (A) (A) (A) (A)
                 (A) (A) (A) (A) (A) (A) (A) (A) (A) (A)
       Virtual   (A) (A) (A) (A) (A) (A) (A) (A) (A) (A) (A) (A)
                 (A) (A) (A) (A) (A) (A) (A) (A) (A) (A) (A) (A)
                 (A) (A) (A) (A) (A)
 The electronic state is 1-A.
 Alpha  occ. eigenvalues --  -13.99067 -13.97271  -9.90082  -9.89639  -9.88057
 Alpha  occ. eigenvalues --   -9.87896  -9.87767  -9.87277  -9.87140  -9.86386
 Alpha  occ. eigenvalues --   -9.84633  -9.83229  -9.80005  -9.67099  -0.72703
 Alpha  occ. eigenvalues --   -0.71090  -0.66985  -0.62341  -0.57500  -0.55251
 Alpha  occ. eigenvalues --   -0.50712  -0.45565  -0.42232  -0.39201  -0.35972
 Alpha  occ. eigenvalues --   -0.31742  -0.30901  -0.26238  -0.25302  -0.24843
 Alpha  occ. eigenvalues --   -0.20841  -0.20344  -0.19117  -0.17616  -0.16491
 Alpha  occ. eigenvalues --   -0.15185  -0.14737  -0.14418  -0.13824  -0.12222
 Alpha  occ. eigenvalues --   -0.09833  -0.09750  -0.07136  -0.02923   0.01782
 Alpha  occ. eigenvalues --    0.10872
 Alpha virt. eigenvalues --    0.16981   0.21108   0.23835   0.25676   0.27488
 Alpha virt. eigenvalues --    0.30489   0.33318   0.37945   0.43041   0.45189
 Alpha virt. eigenvalues --    0.45644   0.51247   0.53235   0.54782   0.57004
 Alpha virt. eigenvalues --    0.58252   0.61053   0.63815   0.67534   0.68191
 Alpha virt. eigenvalues --    0.71120   0.76398   0.78025   0.80725   0.84539
 Alpha virt. eigenvalues --    0.91215   0.93005   1.06672   1.07959
          Condensed to atoms (all electrons):
               1          2          3          4          5          6
     1  N    6.606907   0.658197  -0.000031  -0.010731  -0.000149  -0.000001
     2  C    0.658197   4.955127  -0.031366   0.409238  -0.025561   0.000657
     3  C   -0.000031  -0.031366   4.868163   0.498645  -0.030377  -0.005896
     4  C   -0.010731   0.409238   0.498645   4.804617   0.451000  -0.017506
     5  C   -0.000149  -0.025561  -0.030377   0.451000   4.949448   0.447286
     6  C   -0.000001   0.000657  -0.005896  -0.017506   0.447286   5.477816
     7  C    0.000000   0.000045  -0.030356  -0.013335  -0.029185   0.392321
     8  C   -0.000001   0.000945   0.484128  -0.028778  -0.011766  -0.017402
     9  C    0.000000  -0.000005  -0.030039   0.000814   0.000049   0.000555
    10  C    0.000000   0.000000   0.000775  -0.000008   0.000001   0.000016
    11  C    0.000000   0.000000   0.000039   0.000000  -0.000015   0.000731
    12  C    0.000000   0.000000   0.000908   0.000016   0.001412  -0.034202
    13  N    0.000000   0.000000   0.000000   0.000000   0.000000   0.000000
    14  C    0.000000   0.000000   0.000000   0.000000   0.000000  -0.000005
    15  H    0.000070  -0.003666   0.386990  -0.024735   0.001128  -0.000001
    16  H    0.000103  -0.003794   0.001297  -0.035719   0.381681  -0.031616
    17  H    0.000000  -0.000001  -0.003389   0.000013  -0.000002  -0.000013
    18  H    0.000000   0.000000  -0.000017   0.000000   0.000000   0.000000
    19  H    0.000000   0.000000  -0.000017   0.000000   0.000032  -0.001544
               7          8          9         10         11         12
     1  N    0.000000  -0.000001   0.000000   0.000000   0.000000   0.000000
     2  C    0.000045   0.000945  -0.000005   0.000000   0.000000   0.000000
     3  C   -0.030356   0.484128  -0.030039   0.000775   0.000039   0.000908
     4  C   -0.013335  -0.028778   0.000814  -0.000008   0.000000   0.000016
     5  C   -0.029185  -0.011766   0.000049   0.000001  -0.000015   0.001412
     6  C    0.392321  -0.017402   0.000555   0.000016   0.000731  -0.034202
     7  C    4.899094   0.436742  -0.022734  -0.007668  -0.024922   0.465706
     8  C    0.436742   4.818826   0.456726  -0.027568  -0.008746  -0.033999
     9  C   -0.022734   0.456726   4.835077   0.535828  -0.029485  -0.009595
    10  C   -0.007668  -0.027568   0.535828   4.829198   0.456945  -0.028958
    11  C   -0.024922  -0.008746  -0.029485   0.456945   4.787004   0.502880
    12  C    0.465706  -0.033999  -0.009595  -0.028958   0.502880   4.841812
    13  N   -0.000001   0.000000  -0.000001  -0.000080  -0.011069  -0.000095
    14  C    0.000780   0.000007   0.000847  -0.028894   0.421350  -0.028336
    15  H    0.001166  -0.024675  -0.003470   0.000015   0.000000  -0.000021
    16  H    0.002231   0.000009   0.000001   0.000000   0.000000  -0.000015
    17  H    0.001081  -0.024322   0.384536  -0.026791   0.001419   0.000006
    18  H    0.000022   0.001346  -0.024994   0.387232  -0.024772   0.001201
    19  H   -0.024843   0.001412   0.000029   0.001288  -0.026346   0.383406
              13         14         15         16         17         18
     1  N    0.000000   0.000000   0.000070   0.000103   0.000000   0.000000
     2  C    0.000000   0.000000  -0.003666  -0.003794  -0.000001   0.000000
     3  C    0.000000   0.000000   0.386990   0.001297  -0.003389  -0.000017
     4  C    0.000000   0.000000  -0.024735  -0.035719   0.000013   0.000000
     5  C    0.000000   0.000000   0.001128   0.381681  -0.000002   0.000000
     6  C    0.000000  -0.000005  -0.000001  -0.031616  -0.000013   0.000000
     7  C   -0.000001   0.000780   0.001166   0.002231   0.001081   0.000022
     8  C    0.000000   0.000007  -0.024675   0.000009  -0.024322   0.001346
     9  C   -0.000001   0.000847  -0.003470   0.000001   0.384536  -0.024994
    10  C   -0.000080  -0.028894   0.000015   0.000000  -0.026791   0.387232
    11  C   -0.011069   0.421350   0.000000   0.000000   0.001419  -0.024772
    12  C   -0.000095  -0.028336  -0.000021  -0.000015   0.000006   0.001201
    13  N    6.595357   0.659919   0.000000   0.000000   0.000000   0.000058
    14  C    0.659919   4.936203   0.000000   0.000000  -0.000018  -0.002974
    15  H    0.000000   0.000000   0.617397  -0.000039   0.000996  -0.000001
    16  H    0.000000   0.000000  -0.000039   0.660565   0.000000   0.000000
    17  H    0.000000  -0.000018   0.000996   0.000000   0.615966  -0.003900
    18  H    0.000058  -0.002974  -0.000001   0.000000  -0.003900   0.607353
    19  H    0.000060  -0.003461   0.000000  -0.000003   0.000002  -0.000033
              19
     1  N    0.000000
     2  C    0.000000
     3  C   -0.000017
     4  C    0.000000
     5  C    0.000032
     6  C   -0.001544
     7  C   -0.024843
     8  C    0.001412
     9  C    0.000029
    10  C    0.001288
    11  C   -0.026346
    12  C    0.383406
    13  N    0.000060
    14  C   -0.003461
    15  H    0.000000
    16  H   -0.000003
    17  H    0.000002
    18  H   -0.000033
    19  H    0.593499
 Mulliken charges:
               1
     1  N   -0.254364
     2  C    0.040184
     3  C   -0.109457
     4  C   -0.033533
     5  C   -0.134981
     6  C   -0.211197
     7  C   -0.046144
     8  C   -0.022885
     9  C   -0.094139
    10  C   -0.091331
    11  C   -0.045014
    12  C   -0.062128
    13  N   -0.244149
    14  C    0.044581
    15  H    0.048846
    16  H    0.025299
    17  H    0.054416
    18  H    0.059477
    19  H    0.076519
 Sum of Mulliken charges =  -1.00000
 Mulliken charges with hydrogens summed into heavy atoms:
               1
     1  N   -0.254364
     2  C    0.040184
     3  C   -0.060611
     4  C   -0.033533
     5  C   -0.109682
     6  C   -0.211197
     7  C   -0.046144
     8  C   -0.022885
     9  C   -0.039723
    10  C   -0.031854
    11  C   -0.045014
    12  C    0.014391
    13  N   -0.244149
    14  C    0.044581
 Electronic spatial extent (au):  <R**2>=           3323.1892
 Charge=             -1.0000 electrons
 Dipole moment (field-independent basis, Debye):
    X=              1.8501    Y=              4.0228    Z=              0.0000  Tot=              4.4279
 Quadrupole moment (field-independent basis, Debye-Ang):
   XX=           -145.7311   YY=            -83.0322   ZZ=            -74.1617
   XY=              2.8637   XZ=             -0.0005   YZ=             -0.0003
 Traceless Quadrupole moment (field-independent basis, Debye-Ang):
   XX=            -44.7561   YY=             17.9428   ZZ=             26.8133
   XY=              2.8637   XZ=             -0.0005   YZ=             -0.0003
 Octapole moment (field-independent basis, Debye-Ang**2):
  XXX=             13.9026  YYY=             33.4510  ZZZ=              0.0001  XYY=              8.8357
  XXY=              6.4241  XXZ=             -0.0021  XZZ=             -0.0520  YZZ=             -0.4839
  YYZ=              0.0003  XYZ=             -0.0001
 Hexadecapole moment (field-independent basis, Debye-Ang**3):
 XXXX=          -5828.0773 YYYY=           -650.4957 ZZZZ=            -58.3742 XXXY=            209.3582
 XXXZ=             -0.0207 YYYX=            -29.4410 YYYZ=             -0.0028 ZZZX=              0.0013
 ZZZY=             -0.0001 XXYY=           -692.1075 XXZZ=           -598.6897 YYZZ=           -113.0522
 XXYZ=              0.0025 YYXZ=              0.0005 ZZXY=             -4.7492
 N-N= 6.809109965112D+02 E-N=-2.683874924292D+03  KE= 5.547515782096D+02
 1\1\GINC-N048\FOpt\RB3LYP\STO-3G\C12H5N2(1-)\R2532\15-Jun-2021\0\\#N B
 3LYP/STO-3G OPT\\2Naph\\-1,1\N,2.3829917033,-5.3340554243,3.4670681005
 \C,3.308525676,-5.1559253483,2.7234951984\C,4.8603263384,-3.7026312154
 ,1.4492412063\C,4.4470950653,-5.001851825,1.8103526214\C,5.1265255742,
 -6.1652609714,1.2952349246\C,6.2433167834,-6.1829967628,0.4033738951\C
 ,6.6157359322,-4.7844110833,0.0725374079\C,5.9655963493,-3.5648970701,
 0.5629763163\C,6.4476335774,-2.2644344503,0.1468929491\C,7.5197701418,
 -2.1347239681,-0.7127376816\C,8.1843912406,-3.3170582098,-1.215465726\
 C,7.7284146931,-4.5868211766,-0.8210152931\N,10.2486308943,-3.04973047
 59,-2.8707922577\C,9.317543984,-3.174947493,-2.1240410624\H,4.34581525
 8,-2.8160400647,1.8390682269\H,4.7077876107,-7.1229806803,1.6523221646
 \H,5.9421029735,-1.3660832538,0.5293290686\H,7.8802296736,-1.145733111
 3,-1.0243072004\H,8.235426531,-5.4851074156,-1.2046528584\\Version=ES6
 4L-G09RevD.01\State=1-A\HF=-562.5160516\RMSD=8.056e-09\RMSF=2.840e-05\
 Dipole=0.1515704,1.7278465,-0.162225\Quadrupole=-10.5215436,10.3685303
 ,0.1530133,-8.9437336,24.5432937,7.3721639\PG=C01 [X(C12H5N2)]\\@


 "WHERE SHALL I START, PLEASE YOUR MAJESTY?" HE ASKED.
 "BEGIN AT THE BEGINNING," THE KING SAID GRAVELY,
 "AND GO ON TILL YOU COME TO THE END: THEN STOP." 

                                      -- LEWIS CARROLL
 Job cpu time:       0 days  0 hours  4 minutes 55.8 seconds.
 File lengths (MBytes):  RWF=      5 Int=      0 D2E=      0 Chk=      2 Scr=      1
 Normal termination of Gaussian 09 at Tue Jun 15 11:44:46 2021.
