 Entering Gaussian System, Link 0=/usr/local/apps//g09/g09
 Input=18.com
 Output=18.out
 Initial command:
 /usr/local/apps//g09/l1.exe "/tmp/bnp.472700.sequoia/Gau-13682.inp" -scrdir="/tmp/bnp.472700.sequoia/"
 Entering Link 1 = /usr/local/apps//g09/l1.exe PID=     13683.
  
 Copyright (c) 1988,1990,1992,1993,1995,1998,2003,2009,2013,
            Gaussian, Inc.  All Rights Reserved.
  
 This is part of the Gaussian(R) 09 program.  It is based on
 the Gaussian(R) 03 system (copyright 2003, Gaussian, Inc.),
 the Gaussian(R) 98 system (copyright 1998, Gaussian, Inc.),
 the Gaussian(R) 94 system (copyright 1995, Gaussian, Inc.),
 the Gaussian 92(TM) system (copyright 1992, Gaussian, Inc.),
 the Gaussian 90(TM) system (copyright 1990, Gaussian, Inc.),
 the Gaussian 88(TM) system (copyright 1988, Gaussian, Inc.),
 the Gaussian 86(TM) system (copyright 1986, Carnegie Mellon
 University), and the Gaussian 82(TM) system (copyright 1983,
 Carnegie Mellon University). Gaussian is a federally registered
 trademark of Gaussian, Inc.
  
 This software contains proprietary and confidential information,
 including trade secrets, belonging to Gaussian, Inc.
  
 This software is provided under written license and may be
 used, copied, transmitted, or stored only in accord with that
 written license.
  
 The following legend is applicable only to US Government
 contracts under FAR:
  
                    RESTRICTED RIGHTS LEGEND
  
 Use, reproduction and disclosure by the US Government is
 subject to restrictions as set forth in subparagraphs (a)
 and (c) of the Commercial Computer Software - Restricted
 Rights clause in FAR 52.227-19.
  
 Gaussian, Inc.
 340 Quinnipiac St., Bldg. 40, Wallingford CT 06492
  
  
 ---------------------------------------------------------------
 Warning -- This program may not be used in any manner that
 competes with the business of Gaussian, Inc. or will provide
 assistance to any competitor of Gaussian, Inc.  The licensee
 of this program is prohibited from giving any competitor of
 Gaussian, Inc. access to this program.  By using this program,
 the user acknowledges that Gaussian, Inc. is engaged in the
 business of creating and licensing software in the field of
 computational chemistry and represents and warrants to the
 licensee that it is not a competitor of Gaussian, Inc. and that
 it will not use this program in any manner prohibited above.
 ---------------------------------------------------------------
  

 Cite this work as:
 Gaussian 09, Revision D.01,
 M. J. Frisch, G. W. Trucks, H. B. Schlegel, G. E. Scuseria, 
 M. A. Robb, J. R. Cheeseman, G. Scalmani, V. Barone, B. Mennucci, 
 G. A. Petersson, H. Nakatsuji, M. Caricato, X. Li, H. P. Hratchian, 
 A. F. Izmaylov, J. Bloino, G. Zheng, J. L. Sonnenberg, M. Hada, 
 M. Ehara, K. Toyota, R. Fukuda, J. Hasegawa, M. Ishida, T. Nakajima, 
 Y. Honda, O. Kitao, H. Nakai, T. Vreven, J. A. Montgomery, Jr., 
 J. E. Peralta, F. Ogliaro, M. Bearpark, J. J. Heyd, E. Brothers, 
 K. N. Kudin, V. N. Staroverov, T. Keith, R. Kobayashi, J. Normand, 
 K. Raghavachari, A. Rendell, J. C. Burant, S. S. Iyengar, J. Tomasi, 
 M. Cossi, N. Rega, J. M. Millam, M. Klene, J. E. Knox, J. B. Cross, 
 V. Bakken, C. Adamo, J. Jaramillo, R. Gomperts, R. E. Stratmann, 
 O. Yazyev, A. J. Austin, R. Cammi, C. Pomelli, J. W. Ochterski, 
 R. L. Martin, K. Morokuma, V. G. Zakrzewski, G. A. Voth, 
 P. Salvador, J. J. Dannenberg, S. Dapprich, A. D. Daniels, 
 O. Farkas, J. B. Foresman, J. V. Ortiz, J. Cioslowski, 
 and D. J. Fox, Gaussian, Inc., Wallingford CT, 2013.
 
 ******************************************
 Gaussian 09:  ES64L-G09RevD.01 24-Apr-2013
                15-Jun-2021 
 ******************************************
 -------------------
 #N B3LYP/STO-3G OPT
 -------------------
 1/14=-1,18=20,19=15,26=3,38=1/1,3;
 2/9=110,12=2,17=6,18=5,40=1/2;
 3/6=3,11=2,16=1,25=1,30=1,71=1,74=-5/1,2,3;
 4//1;
 5/5=2,38=5/2;
 6/7=2,8=2,9=2,10=2,28=1/1;
 7//1,2,3,16;
 1/14=-1,18=20,19=15,26=3/3(2);
 2/9=110/2;
 99//99;
 2/9=110/2;
 3/6=3,11=2,16=1,25=1,30=1,71=1,74=-5/1,2,3;
 4/5=5,16=3,69=1/1;
 5/5=2,38=5/2;
 7//1,2,3,16;
 1/14=-1,18=20,19=15,26=3/3(-5);
 2/9=110/2;
 6/7=2,8=2,9=2,10=2,19=2,28=1/1;
 99/9=1/99;
 -----
 1Naph
 -----
 Symbolic Z-matrix:
 Charge = -1 Multiplicity = 1
 N                     7.32307  -2.88127  -0.06427 
 C                     6.55221  -2.02015  -0.02655 
 C                     5.63492  -0.9208   -0.01527 
 C                     6.24664   0.33882  -0.01253 
 C                     5.48783   1.49175  -0.07991 
 C                     4.11125   1.38856  -0.23581 
 C                     3.46907   0.13954  -0.23498 
 C                     4.21281  -1.06081  -0.05862 
 C                     3.45301  -2.26818   0.08696 
 C                     2.05261  -2.26889  -0.03728 
 C                     1.36697  -1.08957  -0.28497 
 C                     2.07165   0.10507  -0.36875 
 N                     4.45299  -4.52013   0.90484 
 C                     4.03814  -3.51282   0.50599 
 H                     5.97076   2.46196  -0.00617 
 H                     3.53157   2.30801  -0.31684 
 H                     1.48789  -3.19153   0.0964 
 H                     0.28269  -1.09293  -0.36838 
 H                     1.50858   1.02602  -0.51944 
 

 GradGradGradGradGradGradGradGradGradGradGradGradGradGradGradGradGradGrad
 Berny optimization.
 Initialization pass.
                           ----------------------------
                           !    Initial Parameters    !
                           ! (Angstroms and Degrees)  !
 --------------------------                            --------------------------
 ! Name  Definition              Value          Derivative Info.                !
 --------------------------------------------------------------------------------
 ! R1    R(1,2)                  1.1564         estimate D2E/DX2                !
 ! R2    R(2,3)                  1.4318         estimate D2E/DX2                !
 ! R3    R(3,4)                  1.4003         estimate D2E/DX2                !
 ! R4    R(3,8)                  1.4296         estimate D2E/DX2                !
 ! R5    R(4,5)                  1.3819         estimate D2E/DX2                !
 ! R6    R(5,6)                  1.3892         estimate D2E/DX2                !
 ! R7    R(5,15)                 1.0863         estimate D2E/DX2                !
 ! R8    R(6,7)                  1.4044         estimate D2E/DX2                !
 ! R9    R(6,16)                 1.0899         estimate D2E/DX2                !
 ! R10   R(7,8)                  1.4231         estimate D2E/DX2                !
 ! R11   R(7,12)                 1.4042         estimate D2E/DX2                !
 ! R12   R(8,9)                  1.434          estimate D2E/DX2                !
 ! R13   R(9,10)                 1.4059         estimate D2E/DX2                !
 ! R14   R(9,14)                 1.4377         estimate D2E/DX2                !
 ! R15   R(10,11)                1.3865         estimate D2E/DX2                !
 ! R16   R(10,17)                1.09           estimate D2E/DX2                !
 ! R17   R(11,12)                1.3895         estimate D2E/DX2                !
 ! R18   R(11,18)                1.0875         estimate D2E/DX2                !
 ! R19   R(12,19)                1.0899         estimate D2E/DX2                !
 ! R20   R(13,14)                1.1601         estimate D2E/DX2                !
 ! A1    A(2,3,4)              114.2557         estimate D2E/DX2                !
 ! A2    A(2,3,8)              124.1829         estimate D2E/DX2                !
 ! A3    A(4,3,8)              121.5135         estimate D2E/DX2                !
 ! A4    A(3,4,5)              120.6988         estimate D2E/DX2                !
 ! A5    A(4,5,6)              119.1843         estimate D2E/DX2                !
 ! A6    A(4,5,15)             119.8513         estimate D2E/DX2                !
 ! A7    A(6,5,15)             120.9638         estimate D2E/DX2                !
 ! A8    A(5,6,7)              121.2708         estimate D2E/DX2                !
 ! A9    A(5,6,16)             118.2089         estimate D2E/DX2                !
 ! A10   A(7,6,16)             120.4696         estimate D2E/DX2                !
 ! A11   A(6,7,8)              120.7475         estimate D2E/DX2                !
 ! A12   A(6,7,12)             118.4771         estimate D2E/DX2                !
 ! A13   A(8,7,12)             120.7438         estimate D2E/DX2                !
 ! A14   A(3,8,7)              116.1698         estimate D2E/DX2                !
 ! A15   A(3,8,9)              127.3333         estimate D2E/DX2                !
 ! A16   A(7,8,9)              116.4791         estimate D2E/DX2                !
 ! A17   A(8,9,10)             121.2815         estimate D2E/DX2                !
 ! A18   A(8,9,14)             122.8776         estimate D2E/DX2                !
 ! A19   A(10,9,14)            115.5123         estimate D2E/DX2                !
 ! A20   A(9,10,11)            120.5275         estimate D2E/DX2                !
 ! A21   A(9,10,17)            120.3756         estimate D2E/DX2                !
 ! A22   A(11,10,17)           119.0591         estimate D2E/DX2                !
 ! A23   A(10,11,12)           119.425          estimate D2E/DX2                !
 ! A24   A(10,11,18)           120.2745         estimate D2E/DX2                !
 ! A25   A(12,11,18)           120.2435         estimate D2E/DX2                !
 ! A26   A(7,12,11)            121.335          estimate D2E/DX2                !
 ! A27   A(7,12,19)            120.4339         estimate D2E/DX2                !
 ! A28   A(11,12,19)           118.2168         estimate D2E/DX2                !
 ! A29   L(1,2,3,13,-1)        182.3102         estimate D2E/DX2                !
 ! A30   L(9,14,13,1,-1)       183.3115         estimate D2E/DX2                !
 ! A31   L(1,2,3,13,-2)        180.8112         estimate D2E/DX2                !
 ! A32   L(9,14,13,1,-2)       177.5062         estimate D2E/DX2                !
 ! D1    D(2,3,4,5)            176.238          estimate D2E/DX2                !
 ! D2    D(8,3,4,5)             -1.3479         estimate D2E/DX2                !
 ! D3    D(2,3,8,7)           -171.1942         estimate D2E/DX2                !
 ! D4    D(2,3,8,9)             10.4045         estimate D2E/DX2                !
 ! D5    D(4,3,8,7)              6.145          estimate D2E/DX2                !
 ! D6    D(4,3,8,9)           -172.2563         estimate D2E/DX2                !
 ! D7    D(3,4,5,6)             -4.0298         estimate D2E/DX2                !
 ! D8    D(3,4,5,15)           175.6849         estimate D2E/DX2                !
 ! D9    D(4,5,6,7)              4.3665         estimate D2E/DX2                !
 ! D10   D(4,5,6,16)          -178.2126         estimate D2E/DX2                !
 ! D11   D(15,5,6,7)          -175.3449         estimate D2E/DX2                !
 ! D12   D(15,5,6,16)            2.076          estimate D2E/DX2                !
 ! D13   D(5,6,7,8)              0.7054         estimate D2E/DX2                !
 ! D14   D(5,6,7,12)           178.6749         estimate D2E/DX2                !
 ! D15   D(16,6,7,8)          -176.6576         estimate D2E/DX2                !
 ! D16   D(16,6,7,12)            1.3119         estimate D2E/DX2                !
 ! D17   D(6,7,8,3)             -5.7868         estimate D2E/DX2                !
 ! D18   D(6,7,8,9)            172.7931         estimate D2E/DX2                !
 ! D19   D(12,7,8,3)           176.29           estimate D2E/DX2                !
 ! D20   D(12,7,8,9)            -5.1301         estimate D2E/DX2                !
 ! D21   D(6,7,12,11)         -175.5922         estimate D2E/DX2                !
 ! D22   D(6,7,12,19)            3.0051         estimate D2E/DX2                !
 ! D23   D(8,7,12,11)            2.3773         estimate D2E/DX2                !
 ! D24   D(8,7,12,19)         -179.0254         estimate D2E/DX2                !
 ! D25   D(3,8,9,10)          -177.1191         estimate D2E/DX2                !
 ! D26   D(3,8,9,14)             9.7608         estimate D2E/DX2                !
 ! D27   D(7,8,9,10)             4.4839         estimate D2E/DX2                !
 ! D28   D(7,8,9,14)          -168.6363         estimate D2E/DX2                !
 ! D29   D(8,9,10,11)           -1.0028         estimate D2E/DX2                !
 ! D30   D(8,9,10,17)         -178.7434         estimate D2E/DX2                !
 ! D31   D(14,9,10,11)         172.5971         estimate D2E/DX2                !
 ! D32   D(14,9,10,17)          -5.1436         estimate D2E/DX2                !
 ! D33   D(9,10,11,12)          -1.9977         estimate D2E/DX2                !
 ! D34   D(9,10,11,18)        -179.2593         estimate D2E/DX2                !
 ! D35   D(17,10,11,12)        175.7724         estimate D2E/DX2                !
 ! D36   D(17,10,11,18)         -1.4892         estimate D2E/DX2                !
 ! D37   D(10,11,12,7)           1.3294         estimate D2E/DX2                !
 ! D38   D(10,11,12,19)       -177.2981         estimate D2E/DX2                !
 ! D39   D(18,11,12,7)         178.5918         estimate D2E/DX2                !
 ! D40   D(18,11,12,19)         -0.0356         estimate D2E/DX2                !
 --------------------------------------------------------------------------------
 Trust Radius=3.00D-01 FncErr=1.00D-07 GrdErr=1.00D-06
 Number of steps in this run=    102 maximum allowed number of steps=    114.
 GradGradGradGradGradGradGradGradGradGradGradGradGradGradGradGradGradGrad

                          Input orientation:                          
 ---------------------------------------------------------------------
 Center     Atomic      Atomic             Coordinates (Angstroms)
 Number     Number       Type             X           Y           Z
 ---------------------------------------------------------------------
      1          7           0        7.323070   -2.881270   -0.064270
      2          6           0        6.552210   -2.020150   -0.026550
      3          6           0        5.634920   -0.920800   -0.015270
      4          6           0        6.246640    0.338820   -0.012530
      5          6           0        5.487830    1.491750   -0.079910
      6          6           0        4.111250    1.388560   -0.235810
      7          6           0        3.469070    0.139540   -0.234980
      8          6           0        4.212810   -1.060810   -0.058620
      9          6           0        3.453010   -2.268180    0.086960
     10          6           0        2.052610   -2.268890   -0.037280
     11          6           0        1.366970   -1.089570   -0.284970
     12          6           0        2.071650    0.105070   -0.368750
     13          7           0        4.452990   -4.520130    0.904840
     14          6           0        4.038140   -3.512820    0.505990
     15          1           0        5.970760    2.461960   -0.006170
     16          1           0        3.531570    2.308010   -0.316840
     17          1           0        1.487890   -3.191530    0.096400
     18          1           0        0.282690   -1.092930   -0.368380
     19          1           0        1.508580    1.026020   -0.519440
 ---------------------------------------------------------------------
                    Distance matrix (angstroms):
                    1          2          3          4          5
     1  N    0.000000
     2  C    1.156363   0.000000
     3  C    2.587604   1.431824   0.000000
     4  C    3.395638   2.378720   1.400304   0.000000
     5  C    4.742537   3.670040   2.417894   1.381876   0.000000
     6  C    5.345714   4.197783   2.775491   2.389916   1.389218
     7  C    4.899771   3.770074   2.421466   2.793580   2.434730
     8  C    3.603862   2.528666   1.429643   2.469322   2.853365
     9  C    3.921239   3.111180   2.566440   3.822397   4.278482
    10  C    5.305986   4.506483   3.827633   4.938689   5.093620
    11  C    6.223666   5.274417   4.279792   5.091729   4.866904
    12  C    6.048830   4.970823   3.724815   4.196674   3.698188
    13  N    3.444183   3.394718   3.898556   5.260052   6.179266
    14  C    3.393349   2.971904   3.088687   4.470063   5.243148
    15  H    5.512007   4.519713   3.399402   2.140998   1.086263
    16  H    6.431788   5.285972   3.865261   3.367777   2.132925
    17  H    5.845631   5.199479   4.729328   5.926292   6.161470
    18  H    7.270323   6.346926   5.366627   6.143715   5.818700
    19  H    7.020142   5.912723   4.590313   4.814397   4.030449
                    6          7          8          9         10
     6  C    0.000000
     7  C    1.404438   0.000000
     8  C    2.457870   1.423057   0.000000
     9  C    3.729505   2.429201   1.433957   0.000000
    10  C    4.201708   2.801068   2.475152   1.405901   0.000000
    11  C    3.697921   2.435577   2.854972   2.424668   1.386452
    12  C    2.413501   1.404231   2.457646   2.783549   2.397065
    13  N    6.027478   4.896919   3.599005   2.596183   3.423083
    14  C    4.957735   3.769962   2.522231   1.437738   2.405168
    15  H    2.159328   3.421175   3.937391   5.359288   6.142785
    16  H    1.089946   2.170914   3.446696   4.594643   4.818038
    17  H    5.288630   3.889848   3.462541   2.171258   1.089974
    18  H    4.564344   3.419034   3.942439   3.411668   2.150611
    19  H    2.643061   2.170319   3.446748   3.873020   3.374149
                   11         12         13         14         15
    11  C    0.000000
    12  C    1.389517   0.000000
    13  N    4.765282   5.355865   0.000000
    14  C    3.692277   4.209677   1.160110   0.000000
    15  H    5.821166   4.570498   7.202996   6.300423   0.000000
    16  H    4.028655   2.643294   6.997500   5.900485   2.463709
    17  H    2.139696   3.380046   3.348219   2.602838   7.215857
    18  H    1.087489   2.153040   5.546007   4.552340   6.717334
    19  H    2.133249   1.089910   6.438781   5.296343   4.715551
                   16         17         18         19
    16  H    0.000000
    17  H    5.881525   0.000000
    18  H    4.703644   2.464275   0.000000
    19  H    2.403546   4.262325   2.452667   0.000000
 Stoichiometry    C12H5N2(1-)
 Framework group  C1[X(C12H5N2)]
 Deg. of freedom    51
 Full point group                 C1      NOp   1
 Largest Abelian subgroup         C1      NOp   1
 Largest concise Abelian subgroup C1      NOp   1
                         Standard orientation:                         
 ---------------------------------------------------------------------
 Center     Atomic      Atomic             Coordinates (Angstroms)
 Number     Number       Type             X           Y           Z
 ---------------------------------------------------------------------
      1          7           0       -3.063659   -1.649055   -0.396036
      2          6           0       -1.935019   -1.471167   -0.217984
      3          6           0       -0.525814   -1.301625   -0.029529
      4          6           0        0.183080   -2.500133    0.118464
      5          6           0        1.560394   -2.495902    0.230570
      6          6           0        2.246138   -1.293722    0.110382
      7          6           0        1.562175   -0.075330   -0.031613
      8          6           0        0.139685   -0.036380   -0.041508
      9          6           0       -0.464399    1.264080   -0.030512
     10          6           0        0.315087    2.431734   -0.104958
     11          6           0        1.697719    2.352501   -0.170525
     12          6           0        2.313317    1.107812   -0.120066
     13          7           0       -2.980591    1.689296    0.447118
     14          6           0       -1.868504    1.470494    0.199645
     15          1           0        2.090709   -3.425783    0.415107
     16          1           0        3.334181   -1.312853    0.171860
     17          1           0       -0.158120    3.413169   -0.074887
     18          1           0        2.297262    3.258660   -0.215872
     19          1           0        3.402574    1.070937   -0.127973
 ---------------------------------------------------------------------
 Rotational constants (GHZ):      0.9418558      0.8309889      0.4477064
 Standard basis: STO-3G (5D, 7F)
 There are    75 symmetry adapted cartesian basis functions of A   symmetry.
 There are    75 symmetry adapted basis functions of A   symmetry.
    75 basis functions,   225 primitive gaussians,    75 cartesian basis functions
    46 alpha electrons       46 beta electrons
       nuclear repulsion energy       725.3348638253 Hartrees.
 NAtoms=   19 NActive=   19 NUniq=   19 SFac= 1.00D+00 NAtFMM=   60 NAOKFM=F Big=F
 Integral buffers will be    131072 words long.
 Raffenetti 2 integral format.
 Two-electron integral symmetry is turned on.
 One-electron integrals computed using PRISM.
 NBasis=    75 RedAO= T EigKep=  1.53D-01  NBF=    75
 NBsUse=    75 1.00D-06 EigRej= -1.00D+00 NBFU=    75
 ExpMin= 1.69D-01 ExpMax= 9.91D+01 ExpMxC= 9.91D+01 IAcc=1 IRadAn=         1 AccDes= 0.00D+00
 Harris functional with IExCor=  402 and IRadAn=       1 diagonalized for initial guess.
 HarFok:  IExCor=  402 AccDes= 0.00D+00 IRadAn=         1 IDoV= 1 UseB2=F ITyADJ=14
 ICtDFT=  3500011 ScaDFX=  1.000000  1.000000  1.000000  1.000000
 FoFCou: FMM=F IPFlag=           0 FMFlag=      100000 FMFlg1=           0
         NFxFlg=           0 DoJE=T BraDBF=F KetDBF=T FulRan=T
         wScrn=  0.000000 ICntrl=     500 IOpCl=  0 I1Cent=   200000004 NGrid=           0
         NMat0=    1 NMatS0=      1 NMatT0=    0 NMatD0=    1 NMtDS0=    0 NMtDT0=    0
 Petite list used in FoFCou.
 Keep R1 ints in memory in canonical form, NReq=4993994.
 Requested convergence on RMS density matrix=1.00D-08 within 128 cycles.
 Requested convergence on MAX density matrix=1.00D-06.
 Requested convergence on             energy=1.00D-06.
 No special actions if energy rises.
 Integral accuracy reduced to 1.0D-05 until final iterations.
 EnCoef did     7 forward-backward iterations
 EnCoef did     3 forward-backward iterations
 Initial convergence to 1.0D-05 achieved.  Increase integral accuracy.
 SCF Done:  E(RB3LYP) =  -562.481105368     A.U. after   22 cycles
            NFock= 22  Conv=0.83D-08     -V/T= 2.0130

 **********************************************************************

            Population analysis using the SCF density.

 **********************************************************************

 Orbital symmetries:
       Occupied  (A) (A) (A) (A) (A) (A) (A) (A) (A) (A) (A) (A)
                 (A) (A) (A) (A) (A) (A) (A) (A) (A) (A) (A) (A)
                 (A) (A) (A) (A) (A) (A) (A) (A) (A) (A) (A) (A)
                 (A) (A) (A) (A) (A) (A) (A) (A) (A) (A)
       Virtual   (A) (A) (A) (A) (A) (A) (A) (A) (A) (A) (A) (A)
                 (A) (A) (A) (A) (A) (A) (A) (A) (A) (A) (A) (A)
                 (A) (A) (A) (A) (A)
 The electronic state is 1-A.
 Alpha  occ. eigenvalues --  -13.98044 -13.93005  -9.89618  -9.88632  -9.87671
 Alpha  occ. eigenvalues --   -9.87417  -9.86990  -9.86922  -9.86701  -9.84226
 Alpha  occ. eigenvalues --   -9.83595  -9.83070  -9.81248  -9.68044  -0.73042
 Alpha  occ. eigenvalues --   -0.69225  -0.68388  -0.62238  -0.59369  -0.54080
 Alpha  occ. eigenvalues --   -0.52735  -0.45308  -0.42971  -0.40311  -0.36146
 Alpha  occ. eigenvalues --   -0.31851  -0.30085  -0.27772  -0.26079  -0.23899
 Alpha  occ. eigenvalues --   -0.22021  -0.21322  -0.19129  -0.17291  -0.16267
 Alpha  occ. eigenvalues --   -0.14817  -0.14249  -0.13566  -0.13247  -0.10818
 Alpha  occ. eigenvalues --   -0.09796  -0.08394  -0.06766  -0.02976   0.01220
 Alpha  occ. eigenvalues --    0.12496
 Alpha virt. eigenvalues --    0.16961   0.23169   0.25222   0.28566   0.32485
 Alpha virt. eigenvalues --    0.33579   0.36713   0.39350   0.46402   0.48513
 Alpha virt. eigenvalues --    0.49334   0.52918   0.55780   0.56894   0.59778
 Alpha virt. eigenvalues --    0.60424   0.63535   0.65561   0.70826   0.71595
 Alpha virt. eigenvalues --    0.74896   0.77758   0.81181   0.86287   0.89335
 Alpha virt. eigenvalues --    0.97581   0.98324   1.15316   1.20815
          Condensed to atoms (all electrons):
               1          2          3          4          5          6
     1  N    6.603243   0.688660  -0.011607  -0.000446  -0.000001   0.000000
     2  C    0.688660   4.903381   0.423888  -0.040250   0.001428   0.000002
     3  C   -0.011607   0.423888   4.831724   0.482236  -0.030471  -0.013548
     4  C   -0.000446  -0.040250   0.482236   5.367221   0.472717  -0.030049
     5  C   -0.000001   0.001428  -0.030471   0.472717   4.863386   0.503303
     6  C    0.000000   0.000002  -0.013548  -0.030049   0.503303   4.871882
     7  C   -0.000002   0.000850  -0.033708  -0.012373  -0.030270   0.485209
     8  C    0.000092  -0.034052   0.455004  -0.025989  -0.010213  -0.028116
     9  C    0.000002  -0.002500  -0.023786   0.000821   0.000040   0.000943
    10  C    0.000000   0.000003   0.000652  -0.000009   0.000000   0.000043
    11  C    0.000000   0.000000   0.000033   0.000000  -0.000011   0.001031
    12  C    0.000000  -0.000008   0.000921   0.000030   0.000993  -0.036129
    13  N   -0.000292  -0.000362   0.000008   0.000000   0.000000   0.000000
    14  C   -0.000227   0.001905  -0.003010   0.000013   0.000000  -0.000007
    15  H    0.000000  -0.000010   0.002050  -0.035397   0.386912  -0.032081
    16  H    0.000000   0.000002   0.000100   0.001766  -0.027606   0.383394
    17  H    0.000000   0.000000  -0.000014   0.000000   0.000000   0.000001
    18  H    0.000000   0.000000   0.000001   0.000000   0.000000  -0.000022
    19  H    0.000000   0.000000  -0.000020  -0.000001   0.000037  -0.004796
               7          8          9         10         11         12
     1  N   -0.000002   0.000092   0.000002   0.000000   0.000000   0.000000
     2  C    0.000850  -0.034052  -0.002500   0.000003   0.000000  -0.000008
     3  C   -0.033708   0.455004  -0.023786   0.000652   0.000033   0.000921
     4  C   -0.012373  -0.025989   0.000821  -0.000009   0.000000   0.000030
     5  C   -0.030270  -0.010213   0.000040   0.000000  -0.000011   0.000993
     6  C    0.485209  -0.028116   0.000943   0.000043   0.001031  -0.036129
     7  C    4.784092   0.468599  -0.030415  -0.010702  -0.029621   0.483311
     8  C    0.468599   4.801073   0.461965  -0.026926  -0.008930  -0.026801
     9  C   -0.030415   0.461965   4.774464   0.500413  -0.030548  -0.011901
    10  C   -0.010702  -0.026926   0.500413   4.830761   0.498637  -0.032203
    11  C   -0.029621  -0.008930  -0.030548   0.498637   4.826746   0.514565
    12  C    0.483311  -0.026801  -0.011901  -0.032203   0.514565   4.833680
    13  N   -0.000002   0.000012  -0.011284  -0.000392   0.000000   0.000000
    14  C    0.000908  -0.027196   0.427819  -0.036279   0.001108   0.000027
    15  H    0.001364  -0.000040   0.000002   0.000000   0.000000  -0.000021
    16  H   -0.026784   0.001301  -0.000015  -0.000002   0.000038  -0.004941
    17  H    0.000036   0.001223  -0.024822   0.390231  -0.027051   0.001598
    18  H    0.001460   0.000022   0.001480  -0.026390   0.391361  -0.025985
    19  H   -0.024983   0.001343   0.000042   0.001620  -0.028092   0.389917
              13         14         15         16         17         18
     1  N   -0.000292  -0.000227   0.000000   0.000000   0.000000   0.000000
     2  C   -0.000362   0.001905  -0.000010   0.000002   0.000000   0.000000
     3  C    0.000008  -0.003010   0.002050   0.000100  -0.000014   0.000001
     4  C    0.000000   0.000013  -0.035397   0.001766   0.000000   0.000000
     5  C    0.000000   0.000000   0.386912  -0.027606   0.000000   0.000000
     6  C    0.000000  -0.000007  -0.032081   0.383394   0.000001  -0.000022
     7  C   -0.000002   0.000908   0.001364  -0.026784   0.000036   0.001460
     8  C    0.000012  -0.027196  -0.000040   0.001301   0.001223   0.000022
     9  C   -0.011284   0.427819   0.000002  -0.000015  -0.024822   0.001480
    10  C   -0.000392  -0.036279   0.000000  -0.000002   0.390231  -0.026390
    11  C    0.000000   0.001108   0.000000   0.000038  -0.027051   0.391361
    12  C    0.000000   0.000027  -0.000021  -0.004941   0.001598  -0.025985
    13  N    6.565831   0.687423   0.000000   0.000000   0.000035   0.000000
    14  C    0.687423   4.887943   0.000000   0.000000  -0.004316  -0.000022
    15  H    0.000000   0.000000   0.648716  -0.003221   0.000000   0.000000
    16  H    0.000000   0.000000  -0.003221   0.637176   0.000000  -0.000002
    17  H    0.000035  -0.004316   0.000000   0.000000   0.605419  -0.004080
    18  H    0.000000  -0.000022   0.000000  -0.000002  -0.004080   0.613888
    19  H    0.000000   0.000001  -0.000003   0.000868  -0.000043  -0.004140
              19
     1  N    0.000000
     2  C    0.000000
     3  C   -0.000020
     4  C   -0.000001
     5  C    0.000037
     6  C   -0.004796
     7  C   -0.024983
     8  C    0.001343
     9  C    0.000042
    10  C    0.001620
    11  C   -0.028092
    12  C    0.389917
    13  N    0.000000
    14  C    0.000001
    15  H   -0.000003
    16  H    0.000868
    17  H   -0.000043
    18  H   -0.004140
    19  H    0.612812
 Mulliken charges:
               1
     1  N   -0.279423
     2  C    0.057063
     3  C   -0.080454
     4  C   -0.180291
     5  C   -0.130245
     6  C   -0.101059
     7  C   -0.026970
     8  C   -0.002370
     9  C   -0.032719
    10  C   -0.089458
    11  C   -0.109266
    12  C   -0.087053
    13  N   -0.240978
    14  C    0.063909
    15  H    0.031731
    16  H    0.037928
    17  H    0.061785
    18  H    0.052429
    19  H    0.055437
 Sum of Mulliken charges =  -1.00000
 Mulliken charges with hydrogens summed into heavy atoms:
               1
     1  N   -0.279423
     2  C    0.057063
     3  C   -0.080454
     4  C   -0.180291
     5  C   -0.098513
     6  C   -0.063131
     7  C   -0.026970
     8  C   -0.002370
     9  C   -0.032719
    10  C   -0.027673
    11  C   -0.056836
    12  C   -0.031616
    13  N   -0.240978
    14  C    0.063909
 Electronic spatial extent (au):  <R**2>=           2357.3391
 Charge=             -1.0000 electrons
 Dipole moment (field-independent basis, Debye):
    X=              6.1329    Y=              4.8317    Z=             -0.0804  Tot=              7.8080
 Quadrupole moment (field-independent basis, Debye-Ang):
   XX=           -103.3829   YY=            -95.3464   ZZ=            -74.6866
   XY=             -1.0168   XZ=             -0.1094   YZ=             -1.5697
 Traceless Quadrupole moment (field-independent basis, Debye-Ang):
   XX=            -12.2443   YY=             -4.2077   ZZ=             16.4520
   XY=             -1.0168   XZ=             -0.1094   YZ=             -1.5697
 Octapole moment (field-independent basis, Debye-Ang**2):
  XXX=             90.6294  YYY=             51.6646  ZZZ=              0.2733  XYY=             17.6737
  XXY=              6.6014  XXZ=             -0.1209  XZZ=             -4.5896  YZZ=             -0.5629
  YYZ=             -0.8490  XYZ=              7.8319
 Hexadecapole moment (field-independent basis, Debye-Ang**3):
 XXXX=          -1851.8119 YYYY=          -1540.1865 ZZZZ=            -77.0638 XXXY=             -4.6156
 XXXZ=             -0.5277 YYYX=             -3.7402 YYYZ=             -1.9382 ZZZX=             -0.2746
 ZZZY=              3.6499 XXYY=           -577.8229 XXZZ=           -277.6556 YYZZ=           -255.3496
 XXYZ=            -25.7031 YYXZ=              0.3232 ZZXY=             -0.0247
 N-N= 7.253348638253D+02 E-N=-2.773270259932D+03  KE= 5.552703032963D+02
 Calling FoFJK, ICntrl=      2127 FMM=F ISym2X=0 I1Cent= 0 IOpClX= 0 NMat=1 NMatS=1 NMatT=0.
 ***** Axes restored to original set *****
 -------------------------------------------------------------------
 Center     Atomic                   Forces (Hartrees/Bohr)
 Number     Number              X              Y              Z
 -------------------------------------------------------------------
      1        7           0.081259635   -0.085356540   -0.002332474
      2        6          -0.070382382    0.056583931   -0.002040679
      3        6          -0.006139467    0.030132185    0.005488726
      4        6           0.066833923   -0.022736392   -0.008072571
      5        6          -0.028677103   -0.001933034    0.006227864
      6        6           0.018335902    0.038406437   -0.006981084
      7        6          -0.011438063    0.015276809   -0.001341577
      8        6           0.003640529   -0.022242523    0.008797490
      9        6          -0.010986370   -0.003870058    0.002242644
     10        6           0.003739696   -0.015989655    0.001794206
     11        6          -0.009981301    0.018835112   -0.002556099
     12        6          -0.029484541   -0.008519767   -0.001695201
     13        7           0.035963062   -0.093442263    0.035140671
     14        6          -0.023489087    0.077390808   -0.030954088
     15        1           0.000060789    0.015434159    0.007038315
     16        1          -0.012178368    0.002234741   -0.007577887
     17        1          -0.000086238   -0.007373748   -0.000961801
     18        1          -0.007530510   -0.000582107   -0.001318946
     19        1           0.000539894    0.007751905   -0.000897510
 -------------------------------------------------------------------
 Cartesian Forces:  Max     0.093442263 RMS     0.030494978

 GradGradGradGradGradGradGradGradGradGradGradGradGradGradGradGradGradGrad
 Berny optimization.
 FormGI is forming the generalized inverse of G from B-inverse, IUseBI=4.
 Internal  Forces:  Max     0.117796506 RMS     0.020439117
 Search for a local minimum.
 Step number   1 out of a maximum of  102
 All quantities printed in internal units (Hartrees-Bohrs-Radians)
 Mixed Optimization -- RFO/linear search
 Second derivative matrix not updated -- first step.
 ITU=  0
     Eigenvalues ---    0.01668   0.01668   0.01748   0.01773   0.01815
     Eigenvalues ---    0.01864   0.01910   0.02018   0.02037   0.02119
     Eigenvalues ---    0.02127   0.02140   0.02195   0.02223   0.02251
     Eigenvalues ---    0.02265   0.04865   0.04865   0.15979   0.15985
     Eigenvalues ---    0.15990   0.15996   0.16000   0.22088   0.22438
     Eigenvalues ---    0.23460   0.24419   0.24813   0.24897   0.24935
     Eigenvalues ---    0.24984   0.34816   0.34819   0.34823   0.35104
     Eigenvalues ---    0.35248   0.37808   0.39066   0.39526   0.39897
     Eigenvalues ---    0.40728   0.42591   0.43118   0.44796   0.45268
     Eigenvalues ---    0.46004   0.46266   0.47366   0.48014   1.27722
     Eigenvalues ---    1.30204
 RFO step:  Lambda=-5.38613550D-02 EMin= 1.66779151D-02
 Linear search not attempted -- first point.
 Maximum step size (   0.300) exceeded in Quadratic search.
    -- Step size scaled by   0.912
 Iteration  1 RMS(Cart)=  0.05152457 RMS(Int)=  0.00129573
 Iteration  2 RMS(Cart)=  0.00189873 RMS(Int)=  0.00055211
 Iteration  3 RMS(Cart)=  0.00000198 RMS(Int)=  0.00055210
 Iteration  4 RMS(Cart)=  0.00000000 RMS(Int)=  0.00055210
 Variable       Old X    -DE/DX   Delta X   Delta X   Delta X     New X
                                 (Linear)    (Quad)   (Total)
    R1        2.18521   0.11780   0.00000   0.07919   0.07919   2.26440
    R2        2.70575   0.02908   0.00000   0.05749   0.05749   2.76324
    R3        2.64619   0.01773   0.00000   0.03177   0.03203   2.67822
    R4        2.70163   0.02702   0.00000   0.05290   0.05304   2.75467
    R5        2.61137   0.05146   0.00000   0.08680   0.08691   2.69827
    R6        2.62524   0.01623   0.00000   0.02814   0.02791   2.65315
    R7        2.05274   0.01429   0.00000   0.03206   0.03206   2.08480
    R8        2.65400   0.03014   0.00000   0.05461   0.05435   2.70836
    R9        2.05970   0.00892   0.00000   0.02023   0.02023   2.07993
   R10        2.68919   0.03518   0.00000   0.06793   0.06793   2.75712
   R11        2.65361   0.03182   0.00000   0.05847   0.05844   2.71205
   R12        2.70979   0.01919   0.00000   0.03770   0.03778   2.74757
   R13        2.65677   0.01152   0.00000   0.02016   0.02019   2.67695
   R14        2.71693   0.02018   0.00000   0.04062   0.04062   2.75755
   R15        2.62001   0.03112   0.00000   0.05281   0.05276   2.67278
   R16        2.05975   0.00617   0.00000   0.01399   0.01399   2.07374
   R17        2.62581   0.00884   0.00000   0.01566   0.01559   2.64140
   R18        2.05506   0.00761   0.00000   0.01714   0.01714   2.07219
   R19        2.05963   0.00640   0.00000   0.01450   0.01450   2.07413
   R20        2.19229   0.10606   0.00000   0.07264   0.07264   2.26493
    A1        1.99414   0.00239   0.00000   0.00788   0.00775   2.00189
    A2        2.16740  -0.01713   0.00000  -0.05071  -0.05075   2.11665
    A3        2.12081   0.01468   0.00000   0.04202   0.04202   2.16283
    A4        2.10659  -0.02734   0.00000  -0.08388  -0.08381   2.02278
    A5        2.08016   0.02030   0.00000   0.06638   0.06542   2.14558
    A6        2.09180  -0.00375   0.00000  -0.00586  -0.00558   2.08622
    A7        2.11122  -0.01654   0.00000  -0.06039  -0.06008   2.05114
    A8        2.11658  -0.00393   0.00000  -0.01488  -0.01579   2.10078
    A9        2.06313   0.01185   0.00000   0.04936   0.04985   2.11298
   A10        2.10259  -0.00797   0.00000  -0.03512  -0.03479   2.06780
   A11        2.10744  -0.00791   0.00000  -0.02642  -0.02713   2.08031
   A12        2.06781   0.01306   0.00000   0.03962   0.03998   2.10780
   A13        2.10738  -0.00513   0.00000  -0.01295  -0.01263   2.09475
   A14        2.02754   0.00363   0.00000   0.00927   0.00890   2.03645
   A15        2.22239  -0.00456   0.00000  -0.01190  -0.01229   2.21009
   A16        2.03294   0.00102   0.00000   0.00371   0.00354   2.03648
   A17        2.11676   0.00007   0.00000  -0.00145  -0.00154   2.11522
   A18        2.14462  -0.00319   0.00000  -0.00716  -0.00754   2.13708
   A19        2.01607   0.00348   0.00000   0.01301   0.01261   2.02869
   A20        2.10360   0.00264   0.00000   0.00586   0.00587   2.10947
   A21        2.10095  -0.00487   0.00000  -0.01795  -0.01801   2.08294
   A22        2.07797   0.00227   0.00000   0.01259   0.01254   2.09051
   A23        2.08436   0.00127   0.00000   0.00360   0.00348   2.08784
   A24        2.09919  -0.00108   0.00000  -0.00349  -0.00351   2.09567
   A25        2.09864  -0.00012   0.00000   0.00069   0.00067   2.09931
   A26        2.11770   0.00019   0.00000   0.00214   0.00208   2.11977
   A27        2.10197  -0.00474   0.00000  -0.02077  -0.02076   2.08120
   A28        2.06327   0.00456   0.00000   0.01886   0.01887   2.08214
   A29        3.18191   0.00665   0.00000   0.08588   0.08588   3.26780
   A30        3.19939   0.00428   0.00000   0.03806   0.03806   3.23745
   A31        3.15575  -0.00549   0.00000  -0.07091  -0.07091   3.08484
   A32        3.09807   0.00426   0.00000   0.03786   0.03786   3.13593
    D1        3.07593  -0.00087   0.00000  -0.00864  -0.00992   3.06601
    D2       -0.02353   0.00106   0.00000   0.01321   0.01206  -0.01146
    D3       -2.98790   0.00431   0.00000   0.05603   0.05499  -2.93291
    D4        0.18159   0.00046   0.00000   0.00727   0.00710   0.18869
    D5        0.10725   0.00277   0.00000   0.03370   0.03327   0.14052
    D6       -3.00644  -0.00108   0.00000  -0.01505  -0.01462  -3.02106
    D7       -0.07033  -0.00633   0.00000  -0.07318  -0.07384  -0.14417
    D8        3.06628  -0.00392   0.00000  -0.04526  -0.04407   3.02221
    D9        0.07621   0.00717   0.00000   0.08453   0.08610   0.16231
   D10       -3.11040   0.00564   0.00000   0.06751   0.06903  -3.04137
   D11       -3.06035   0.00469   0.00000   0.05612   0.05675  -3.00360
   D12        0.03623   0.00316   0.00000   0.03910   0.03967   0.07590
   D13        0.01231  -0.00259   0.00000  -0.03428  -0.03233  -0.02002
   D14        3.11847  -0.00205   0.00000  -0.02625  -0.02455   3.09392
   D15       -3.08326  -0.00154   0.00000  -0.01905  -0.01785  -3.10111
   D16        0.02290  -0.00099   0.00000  -0.01102  -0.01007   0.01283
   D17       -0.10100  -0.00142   0.00000  -0.02098  -0.02075  -0.12174
   D18        3.01581   0.00190   0.00000   0.02206   0.02199   3.03780
   D19        3.07684  -0.00235   0.00000  -0.03024  -0.02955   3.04729
   D20       -0.08954   0.00097   0.00000   0.01279   0.01319  -0.07635
   D21       -3.06466  -0.00142   0.00000  -0.01898  -0.01921  -3.08387
   D22        0.05245  -0.00051   0.00000  -0.00726  -0.00730   0.04514
   D23        0.04149  -0.00093   0.00000  -0.01124  -0.01166   0.02984
   D24       -3.12458  -0.00002   0.00000   0.00048   0.00025  -3.12433
   D25       -3.09131   0.00391   0.00000   0.04778   0.04663  -3.04468
   D26        0.17036  -0.00009   0.00000   0.00106   0.00047   0.17083
   D27        0.07826   0.00001   0.00000  -0.00118  -0.00134   0.07692
   D28       -2.94326  -0.00399   0.00000  -0.04790  -0.04749  -2.99075
   D29       -0.01750  -0.00102   0.00000  -0.01216  -0.01237  -0.02987
   D30       -3.11966  -0.00235   0.00000  -0.02739  -0.02724   3.13629
   D31        3.01239   0.00228   0.00000   0.03006   0.02980   3.04219
   D32       -0.08977   0.00094   0.00000   0.01483   0.01493  -0.07484
   D33       -0.03487   0.00098   0.00000   0.01390   0.01415  -0.02071
   D34       -3.12867  -0.00054   0.00000  -0.00527  -0.00509  -3.13375
   D35        3.06781   0.00214   0.00000   0.02825   0.02841   3.09621
   D36       -0.02599   0.00062   0.00000   0.00907   0.00917  -0.01683
   D37        0.02320  -0.00035   0.00000  -0.00300  -0.00275   0.02045
   D38       -3.09444  -0.00111   0.00000  -0.01394  -0.01413  -3.10856
   D39        3.11702   0.00115   0.00000   0.01605   0.01641   3.13343
   D40       -0.00062   0.00039   0.00000   0.00511   0.00504   0.00441
         Item               Value     Threshold  Converged?
 Maximum Force            0.117797     0.000450     NO 
 RMS     Force            0.020439     0.000300     NO 
 Maximum Displacement     0.179100     0.001800     NO 
 RMS     Displacement     0.050840     0.001200     NO 
 Predicted change in Energy=-3.025006D-02
 GradGradGradGradGradGradGradGradGradGradGradGradGradGradGradGradGradGrad

                          Input orientation:                          
 ---------------------------------------------------------------------
 Center     Atomic      Atomic             Coordinates (Angstroms)
 Number     Number       Type             X           Y           Z
 ---------------------------------------------------------------------
      1          7           0        7.369079   -2.934707   -0.084769
      2          6           0        6.530822   -2.078818   -0.059599
      3          6           0        5.660635   -0.905004   -0.003977
      4          6           0        6.341416    0.337979   -0.015728
      5          6           0        5.514750    1.501391   -0.059271
      6          6           0        4.126122    1.444027   -0.258284
      7          6           0        3.441717    0.185090   -0.231181
      8          6           0        4.209055   -1.037648   -0.019505
      9          6           0        3.448707   -2.267716    0.131397
     10          6           0        2.040066   -2.282498   -0.017661
     11          6           0        1.325993   -1.090830   -0.283133
     12          6           0        2.015239    0.121675   -0.375458
     13          7           0        4.472845   -4.596637    0.889653
     14          6           0        4.068471   -3.527307    0.529748
     15          1           0        5.974195    2.499091    0.043743
     16          1           0        3.531407    2.362147   -0.379975
     17          1           0        1.496983   -3.229050    0.097795
     18          1           0        0.234834   -1.116041   -0.388840
     19          1           0        1.452321    1.047505   -0.550535
 ---------------------------------------------------------------------
                    Distance matrix (angstroms):
                    1          2          3          4          5
     1  N    0.000000
     2  C    1.198271   0.000000
     3  C    2.654242   1.462245   0.000000
     4  C    3.430938   2.424605   1.417253   0.000000
     5  C    4.808133   3.721599   2.411446   1.427865   0.000000
     6  C    5.451622   4.269953   2.817330   2.487911   1.403989
     7  C    5.017842   3.833705   2.482644   2.911708   2.461639
     8  C    3.686305   2.544847   1.457711   2.537582   2.855370
     9  C    3.982577   3.093799   2.601526   3.896031   4.302447
    10  C    5.369195   4.495569   3.873784   5.036716   5.137409
    11  C    6.321244   5.302484   4.347595   5.221826   4.931066
    12  C    6.171675   5.033133   3.805388   4.346492   3.774939
    13  N    3.478460   3.387589   3.979645   5.353663   6.258751
    14  C    3.409225   2.916954   3.113892   4.517107   5.265592
    15  H    5.611451   4.612783   3.418839   2.192896   1.103226
    16  H    6.547636   5.368548   3.917813   3.482252   2.185727
    17  H    5.882302   5.165980   4.769439   6.017069   6.208397
    18  H    7.368680   6.377680   5.443526   6.288380   5.902294
    19  H    7.147235   5.983819   4.671287   4.969174   4.117120
                    6          7          8          9         10
     6  C    0.000000
     7  C    1.433202   0.000000
     8  C    2.494514   1.459007   0.000000
     9  C    3.793122   2.479469   1.453949   0.000000
    10  C    4.277443   2.845910   2.500834   1.416583   0.000000
    11  C    3.777147   2.471227   2.895579   2.462278   1.414372
    12  C    2.493626   1.435157   2.506703   2.832123   2.430778
    13  N    6.158538   5.018406   3.682738   2.654747   3.478056
    14  C    5.033734   3.841058   2.553399   1.459233   2.442056
    15  H    2.149362   3.441458   3.953257   5.395204   6.192313
    16  H    1.100654   2.183978   3.485362   4.658752   4.891635
    17  H    5.373715   3.942914   3.488745   2.175895   1.097375
    18  H    4.659733   3.464375   3.992115   3.453401   2.181114
    19  H    2.718796   2.191676   3.497061   3.929539   3.423203
                   11         12         13         14         15
    11  C    0.000000
    12  C    1.397767   0.000000
    13  N    4.854769   5.468345   0.000000
    14  C    3.757444   4.283717   1.198547   0.000000
    15  H    5.882191   4.636935   7.301984   6.339200   0.000000
    16  H    4.098326   2.705272   7.136030   5.983452   2.483044
    17  H    2.178608   3.423437   3.369434   2.624518   7.270485
    18  H    1.096556   2.168401   5.631148   4.621123   6.796806
    19  H    2.158689   1.097584   6.561558   5.379606   4.786189
                   16         17         18         19
    16  H    0.000000
    17  H    5.968972   0.000000
    18  H    4.792208   2.508913   0.000000
    19  H    2.465759   4.325651   2.487841   0.000000
 Stoichiometry    C12H5N2(1-)
 Framework group  C1[X(C12H5N2)]
 Deg. of freedom    51
 Full point group                 C1      NOp   1
 Largest Abelian subgroup         C1      NOp   1
 Largest concise Abelian subgroup C1      NOp   1
                         Standard orientation:                         
 ---------------------------------------------------------------------
 Center     Atomic      Atomic             Coordinates (Angstroms)
 Number     Number       Type             X           Y           Z
 ---------------------------------------------------------------------
      1          7           0       -3.137018   -1.634289   -0.413652
      2          6           0       -1.972014   -1.406085   -0.250736
      3          6           0       -0.531150   -1.325004   -0.015154
      4          6           0        0.119219   -2.577575    0.114049
      5          6           0        1.539983   -2.531608    0.248639
      6          6           0        2.284179   -1.352037    0.087491
      7          6           0        1.620724   -0.086949   -0.028468
      8          6           0        0.162613   -0.043034   -0.002328
      9          6           0       -0.450731    1.275151    0.010542
     10          6           0        0.333317    2.450249   -0.094919
     11          6           0        1.743198    2.376579   -0.180094
     12          6           0        2.373925    1.130023   -0.134978
     13          7           0       -3.031306    1.739674    0.425918
     14          6           0       -1.881298    1.470962    0.221488
     15          1           0        2.095856   -3.459320    0.466503
     16          1           0        3.384574   -1.367841    0.105357
     17          1           0       -0.161764    3.429567   -0.086993
     18          1           0        2.337963    3.294861   -0.253914
     19          1           0        3.469854    1.081010   -0.170005
 ---------------------------------------------------------------------
 Rotational constants (GHZ):      0.9187490      0.8006532      0.4339306
 Standard basis: STO-3G (5D, 7F)
 There are    75 symmetry adapted cartesian basis functions of A   symmetry.
 There are    75 symmetry adapted basis functions of A   symmetry.
    75 basis functions,   225 primitive gaussians,    75 cartesian basis functions
    46 alpha electrons       46 beta electrons
       nuclear repulsion energy       713.2988329832 Hartrees.
 NAtoms=   19 NActive=   19 NUniq=   19 SFac= 1.00D+00 NAtFMM=   60 NAOKFM=F Big=F
 Integral buffers will be    131072 words long.
 Raffenetti 2 integral format.
 Two-electron integral symmetry is turned on.
 One-electron integrals computed using PRISM.
 NBasis=    75 RedAO= T EigKep=  1.75D-01  NBF=    75
 NBsUse=    75 1.00D-06 EigRej= -1.00D+00 NBFU=    75
 Initial guess from the checkpoint file:  "/tmp/bnp.472700.sequoia/Gau-13683.chk"
 B after Tr=     0.000000    0.000000    0.000000
         Rot=    0.999988   -0.000691    0.000280    0.004864 Ang=  -0.56 deg.
 ExpMin= 1.69D-01 ExpMax= 9.91D+01 ExpMxC= 9.91D+01 IAcc=1 IRadAn=         1 AccDes= 0.00D+00
 Harris functional with IExCor=  402 and IRadAn=       1 diagonalized for initial guess.
 HarFok:  IExCor=  402 AccDes= 0.00D+00 IRadAn=         1 IDoV= 1 UseB2=F ITyADJ=14
 ICtDFT=  3500011 ScaDFX=  1.000000  1.000000  1.000000  1.000000
 FoFCou: FMM=F IPFlag=           0 FMFlag=      100000 FMFlg1=           0
         NFxFlg=           0 DoJE=T BraDBF=F KetDBF=T FulRan=T
         wScrn=  0.000000 ICntrl=     500 IOpCl=  0 I1Cent=   200000004 NGrid=           0
         NMat0=    1 NMatS0=      1 NMatT0=    0 NMatD0=    1 NMtDS0=    0 NMtDT0=    0
 Petite list used in FoFCou.
 Keep R1 ints in memory in canonical form, NReq=4993994.
 Requested convergence on RMS density matrix=1.00D-08 within 128 cycles.
 Requested convergence on MAX density matrix=1.00D-06.
 Requested convergence on             energy=1.00D-06.
 No special actions if energy rises.
 Integral accuracy reduced to 1.0D-05 until final iterations.
 Initial convergence to 1.0D-05 achieved.  Increase integral accuracy.
 SCF Done:  E(RB3LYP) =  -562.508708480     A.U. after   17 cycles
            NFock= 17  Conv=0.23D-08     -V/T= 2.0142
 Calling FoFJK, ICntrl=      2127 FMM=F ISym2X=0 I1Cent= 0 IOpClX= 0 NMat=1 NMatS=1 NMatT=0.
 ***** Axes restored to original set *****
 -------------------------------------------------------------------
 Center     Atomic                   Forces (Hartrees/Bohr)
 Number     Number              X              Y              Z
 -------------------------------------------------------------------
      1        7           0.003526590   -0.005422653   -0.001143743
      2        6          -0.000909716   -0.001595610    0.000924219
      3        6          -0.010978223    0.013902201    0.000901582
      4        6           0.025041768   -0.007175937   -0.005069071
      5        6          -0.022635119   -0.002481251    0.003175489
      6        6           0.013779503    0.009257017   -0.001133676
      7        6          -0.005940414    0.001198282   -0.000557116
      8        6          -0.000164681   -0.004697978    0.002424141
      9        6          -0.006081523    0.002800111    0.001853673
     10        6           0.003563612   -0.001361826    0.000767738
     11        6           0.002247719    0.005777060    0.000004204
     12        6          -0.002466804   -0.007518357    0.001303949
     13        7           0.000999737   -0.004601532    0.001496378
     14        6           0.001250884    0.001898143   -0.002508138
     15        1          -0.000656059    0.001646821    0.002691427
     16        1          -0.001869720   -0.001699388   -0.003849657
     17        1           0.000459547   -0.000931146   -0.000932233
     18        1          -0.000431636   -0.000823507   -0.000324642
     19        1           0.001264535    0.001829550   -0.000024523
 -------------------------------------------------------------------
 Cartesian Forces:  Max     0.025041768 RMS     0.006181724

 GradGradGradGradGradGradGradGradGradGradGradGradGradGradGradGradGradGrad
 Berny optimization.
 Using GEDIIS/GDIIS optimizer.
 FormGI is forming the generalized inverse of G from B-inverse, IUseBI=4.
 Internal  Forces:  Max     0.014469474 RMS     0.003306759
 Search for a local minimum.
 Step number   2 out of a maximum of  102
 All quantities printed in internal units (Hartrees-Bohrs-Radians)
 Mixed Optimization -- RFO/linear search
 Update second derivatives using D2CorX and points    1    2
 DE= -2.76D-02 DEPred=-3.03D-02 R= 9.12D-01
 TightC=F SS=  1.41D+00  RLast= 3.62D-01 DXNew= 5.0454D-01 1.0865D+00
 Trust test= 9.12D-01 RLast= 3.62D-01 DXMaxT set to 5.05D-01
 ITU=  1  0
 Use linear search instead of GDIIS.
     Eigenvalues ---    0.01668   0.01712   0.01758   0.01776   0.01843
     Eigenvalues ---    0.01867   0.01915   0.02018   0.02041   0.02122
     Eigenvalues ---    0.02135   0.02143   0.02195   0.02249   0.02255
     Eigenvalues ---    0.02339   0.04864   0.04895   0.15911   0.15986
     Eigenvalues ---    0.15994   0.15997   0.16051   0.21556   0.22095
     Eigenvalues ---    0.23293   0.23515   0.24771   0.24912   0.24949
     Eigenvalues ---    0.25003   0.34815   0.34820   0.34862   0.35119
     Eigenvalues ---    0.35288   0.38310   0.39146   0.39549   0.39870
     Eigenvalues ---    0.40400   0.42615   0.43284   0.44817   0.45300
     Eigenvalues ---    0.46052   0.46670   0.47344   0.49805   1.28626
     Eigenvalues ---    1.33476
 RFO step:  Lambda=-6.14270283D-03 EMin= 1.66750809D-02
 Quartic linear search produced a step of  0.20436.
 Iteration  1 RMS(Cart)=  0.07679412 RMS(Int)=  0.00692976
 Iteration  2 RMS(Cart)=  0.00814635 RMS(Int)=  0.00090007
 Iteration  3 RMS(Cart)=  0.00008064 RMS(Int)=  0.00089909
 Iteration  4 RMS(Cart)=  0.00000002 RMS(Int)=  0.00089909
 Variable       Old X    -DE/DX   Delta X   Delta X   Delta X     New X
                                 (Linear)    (Quad)   (Total)
    R1        2.26440   0.00636   0.01618  -0.00655   0.00964   2.27404
    R2        2.76324   0.00720   0.01175   0.01156   0.02331   2.78655
    R3        2.67822   0.00283   0.00655   0.00306   0.00998   2.68820
    R4        2.75467   0.00077   0.01084  -0.00555   0.00566   2.76033
    R5        2.69827   0.01397   0.01776   0.02008   0.03781   2.73608
    R6        2.65315  -0.00677   0.00570  -0.02199  -0.01685   2.63630
    R7        2.08480   0.00147   0.00655  -0.00031   0.00624   2.09104
    R8        2.70836   0.00338   0.01111  -0.00071   0.01006   2.71842
    R9        2.07993   0.00002   0.00414  -0.00323   0.00091   2.08084
   R10        2.75712  -0.00009   0.01388  -0.01157   0.00246   2.75959
   R11        2.71205  -0.00068   0.01194  -0.01128   0.00044   2.71250
   R12        2.74757   0.00000   0.00772  -0.00617   0.00177   2.74933
   R13        2.67695  -0.00388   0.00413  -0.01339  -0.00906   2.66790
   R14        2.75755   0.00303   0.00830   0.00238   0.01068   2.76823
   R15        2.67278   0.00191   0.01078  -0.00358   0.00721   2.67999
   R16        2.07374   0.00048   0.00286  -0.00066   0.00220   2.07594
   R17        2.64140  -0.00336   0.00319  -0.01082  -0.00783   2.63356
   R18        2.07219   0.00048   0.00350  -0.00118   0.00233   2.07452
   R19        2.07413   0.00090   0.00296   0.00068   0.00364   2.07777
   R20        2.26493   0.00490   0.01484  -0.00677   0.00807   2.27300
    A1        2.00189   0.00034   0.00158   0.00040   0.00197   2.00386
    A2        2.11665  -0.00843  -0.01037  -0.03091  -0.04114   2.07551
    A3        2.16283   0.00807   0.00859   0.02948   0.03772   2.20055
    A4        2.02278  -0.01447  -0.01713  -0.05646  -0.07446   1.94833
    A5        2.14558   0.00823   0.01337   0.02734   0.03749   2.18307
    A6        2.08622  -0.00308  -0.00114  -0.01142  -0.01203   2.07419
    A7        2.05114  -0.00518  -0.01228  -0.01716  -0.02873   2.02241
    A8        2.10078  -0.00012  -0.00323  -0.00533  -0.01066   2.09012
    A9        2.11298   0.00298   0.01019   0.01611   0.02745   2.14043
   A10        2.06780  -0.00288  -0.00711  -0.01138  -0.01763   2.05018
   A11        2.08031  -0.00254  -0.00554  -0.01221  -0.01897   2.06134
   A12        2.10780   0.00379   0.00817   0.01452   0.02339   2.13119
   A13        2.09475  -0.00125  -0.00258  -0.00221  -0.00431   2.09044
   A14        2.03645   0.00034   0.00182  -0.00231  -0.00140   2.03505
   A15        2.21009  -0.00091  -0.00251  -0.00050  -0.00384   2.20625
   A16        2.03648   0.00055   0.00072   0.00183   0.00217   2.03865
   A17        2.11522   0.00016  -0.00031   0.00182   0.00115   2.11637
   A18        2.13708  -0.00036  -0.00154   0.00141  -0.00149   2.13559
   A19        2.02869   0.00031   0.00258   0.00128   0.00250   2.03118
   A20        2.10947  -0.00052   0.00120  -0.00394  -0.00246   2.10701
   A21        2.08294  -0.00045  -0.00368  -0.00030  -0.00430   2.07864
   A22        2.09051   0.00098   0.00256   0.00478   0.00702   2.09753
   A23        2.08784   0.00037   0.00071   0.00117   0.00172   2.08956
   A24        2.09567  -0.00098  -0.00072  -0.00567  -0.00652   2.08915
   A25        2.09931   0.00062   0.00014   0.00516   0.00516   2.10447
   A26        2.11977   0.00071   0.00042   0.00248   0.00260   2.12237
   A27        2.08120  -0.00246  -0.00424  -0.01295  -0.01711   2.06409
   A28        2.08214   0.00176   0.00386   0.01063   0.01457   2.09671
   A29        3.26780  -0.00212   0.01755  -0.13604  -0.11848   3.14931
   A30        3.23745   0.00153   0.00778   0.02543   0.03321   3.27066
   A31        3.08484   0.00299  -0.01449   0.17751   0.16302   3.24785
   A32        3.13593   0.00021   0.00774  -0.00343   0.00430   3.14023
    D1        3.06601  -0.00026  -0.00203   0.00051  -0.00328   3.06273
    D2       -0.01146   0.00044   0.00246   0.02012   0.02088   0.00941
    D3       -2.93291   0.00142   0.01124   0.06402   0.07379  -2.85912
    D4        0.18869   0.00002   0.00145   0.00292   0.00413   0.19282
    D5        0.14052   0.00104   0.00680   0.04446   0.05040   0.19092
    D6       -3.02106  -0.00037  -0.00299  -0.01663  -0.01926  -3.04032
    D7       -0.14417  -0.00318  -0.01509  -0.10857  -0.12392  -0.26809
    D8        3.02221  -0.00130  -0.00901  -0.04744  -0.05468   2.96753
    D9        0.16231   0.00391   0.01760   0.12790   0.14760   0.30992
   D10       -3.04137   0.00345   0.01411   0.11605   0.13241  -2.90896
   D11       -3.00360   0.00209   0.01160   0.06799   0.08039  -2.92320
   D12        0.07590   0.00163   0.00811   0.05614   0.06520   0.14110
   D13       -0.02002  -0.00103  -0.00661  -0.05015  -0.05407  -0.07409
   D14        3.09392  -0.00097  -0.00502  -0.04596  -0.04881   3.04511
   D15       -3.10111  -0.00079  -0.00365  -0.03956  -0.04123   3.14085
   D16        0.01283  -0.00073  -0.00206  -0.03538  -0.03597  -0.02314
   D17       -0.12174  -0.00058  -0.00424  -0.02805  -0.03171  -0.15345
   D18        3.03780   0.00070   0.00449   0.02684   0.03116   3.06896
   D19        3.04729  -0.00072  -0.00604  -0.03247  -0.03730   3.01000
   D20       -0.07635   0.00056   0.00270   0.02242   0.02557  -0.05078
   D21       -3.08387  -0.00056  -0.00393  -0.02371  -0.02768  -3.11155
   D22        0.04514  -0.00016  -0.00149  -0.00875  -0.01015   0.03500
   D23        0.02984  -0.00052  -0.00238  -0.01965  -0.02255   0.00728
   D24       -3.12433  -0.00012   0.00005  -0.00468  -0.00502  -3.12935
   D25       -3.04468   0.00134   0.00953   0.05584   0.06413  -2.98056
   D26        0.17083  -0.00051   0.00010  -0.01995  -0.02061   0.15022
   D27        0.07692  -0.00007  -0.00027  -0.00529  -0.00570   0.07122
   D28       -2.99075  -0.00192  -0.00971  -0.08108  -0.09043  -3.08118
   D29       -0.02987  -0.00043  -0.00253  -0.01527  -0.01803  -0.04790
   D30        3.13629  -0.00108  -0.00557  -0.04055  -0.04595   3.09034
   D31        3.04219   0.00129   0.00609   0.05603   0.06170   3.10389
   D32       -0.07484   0.00063   0.00305   0.03075   0.03378  -0.04106
   D33       -0.02071   0.00050   0.00289   0.01889   0.02198   0.00127
   D34       -3.13375  -0.00021  -0.00104  -0.00769  -0.00846   3.14097
   D35        3.09621   0.00114   0.00581   0.04420   0.05004  -3.13693
   D36       -0.01683   0.00042   0.00187   0.01762   0.01960   0.00277
   D37        0.02045  -0.00004  -0.00056  -0.00133  -0.00162   0.01883
   D38       -3.10856  -0.00041  -0.00289  -0.01614  -0.01925  -3.12782
   D39        3.13343   0.00065   0.00335   0.02512   0.02890  -3.12086
   D40        0.00441   0.00028   0.00103   0.01031   0.01127   0.01569
         Item               Value     Threshold  Converged?
 Maximum Force            0.014469     0.000450     NO 
 RMS     Force            0.003307     0.000300     NO 
 Maximum Displacement     0.419358     0.001800     NO 
 RMS     Displacement     0.079060     0.001200     NO 
 Predicted change in Energy=-3.822973D-03
 GradGradGradGradGradGradGradGradGradGradGradGradGradGradGradGradGradGrad

                          Input orientation:                          
 ---------------------------------------------------------------------
 Center     Atomic      Atomic             Coordinates (Angstroms)
 Number     Number       Type             X           Y           Z
 ---------------------------------------------------------------------
      1          7           0        7.147164   -3.069944   -0.252207
      2          6           0        6.501008   -2.073776   -0.056669
      3          6           0        5.668012   -0.860645    0.037237
      4          6           0        6.390783    0.364062    0.001177
      5          6           0        5.502909    1.507709   -0.008137
      6          6           0        4.137105    1.460154   -0.288396
      7          6           0        3.437679    0.204940   -0.220625
      8          6           0        4.214183   -1.001469    0.051633
      9          6           0        3.468151   -2.240861    0.206651
     10          6           0        2.070258   -2.283518    0.013714
     11          6           0        1.343229   -1.102206   -0.281570
     12          6           0        2.014503    0.114765   -0.384298
     13          7           0        4.508302   -4.594199    0.890188
     14          6           0        4.116029   -3.507648    0.555073
     15          1           0        5.932104    2.517847    0.132644
     16          1           0        3.541462    2.362947   -0.494957
     17          1           0        1.549336   -3.247511    0.092089
     18          1           0        0.256659   -1.154811   -0.428996
     19          1           0        1.455783    1.036813   -0.600132
 ---------------------------------------------------------------------
                    Distance matrix (angstroms):
                    1          2          3          4          5
     1  N    0.000000
     2  C    1.203371   0.000000
     3  C    2.674448   1.474581   0.000000
     4  C    3.525438   2.441014   1.422535   0.000000
     5  C    4.870118   3.718278   2.374535   1.447873   0.000000
     6  C    5.439076   4.257980   2.799253   2.522763   1.395072
     7  C    4.948348   3.821442   2.485226   2.965693   2.451027
     8  C    3.601845   2.528071   1.460704   2.569982   2.821411
     9  C    3.799087   3.048849   2.602515   3.920411   4.270615
    10  C    5.144333   4.436271   3.868973   5.067225   5.114389
    11  C    6.128500   5.253305   4.343240   5.263809   4.918268
    12  C    6.041857   5.002578   3.804897   4.400291   3.775019
    13  N    3.254537   3.349619   4.001484   5.377585   6.247360
    14  C    3.167186   2.849271   3.111821   4.524538   5.233971
    15  H    5.731308   4.630604   3.390141   2.206005   1.106529
    16  H    6.525054   5.351218   3.898332   3.515725   2.194471
    17  H    5.611216   5.091055   4.760633   6.040805   6.184893
    18  H    7.153883   6.322580   5.439360   6.333995   5.898243
    19  H    7.026971   5.951925   4.663631   5.016811   4.117211
                    6          7          8          9         10
     6  C    0.000000
     7  C    1.438524   0.000000
     8  C    2.486192   1.460311   0.000000
     9  C    3.793426   2.483030   1.454884   0.000000
    10  C    4.286981   2.849066   2.498300   1.411790   0.000000
    11  C    3.790973   2.469629   2.891980   2.459713   1.418189
    12  C    2.514897   1.435392   2.504917   2.830422   2.431724
    13  N    6.179161   5.041019   3.700998   2.662204   3.471529
    14  C    5.038942   3.852944   2.558128   1.464886   2.444738
    15  H    2.125562   3.420014   3.917066   5.359277   6.162881
    16  H    1.101134   2.177848   3.474279   4.657540   4.900288
    17  H    5.385483   3.947537   3.485362   2.169866   1.098538
    18  H    4.681418   3.465722   3.989550   3.449236   2.181538
    19  H    2.732377   2.182647   3.491155   3.929844   3.432052
                   11         12         13         14         15
    11  C    0.000000
    12  C    1.393621   0.000000
    13  N    4.856410   5.478840   0.000000
    14  C    3.764909   4.291935   1.202818   0.000000
    15  H    5.859533   4.624893   7.292618   6.307390   0.000000
    16  H    4.109142   2.719958   7.159280   5.991376   2.476499
    17  H    2.187335   3.427569   3.347537   2.621057   7.242213
    18  H    1.097787   2.168833   5.625486   4.625902   6.783402
    19  H    2.165537   1.099511   6.576261   5.391060   4.771569
                   16         17         18         19
    16  H    0.000000
    17  H    5.982510   0.000000
    18  H    4.813409   2.514346   0.000000
    19  H    2.473813   4.340893   2.504077   0.000000
 Stoichiometry    C12H5N2(1-)
 Framework group  C1[X(C12H5N2)]
 Deg. of freedom    51
 Full point group                 C1      NOp   1
 Largest Abelian subgroup         C1      NOp   1
 Largest concise Abelian subgroup C1      NOp   1
                         Standard orientation:                         
 ---------------------------------------------------------------------
 Center     Atomic      Atomic             Coordinates (Angstroms)
 Number     Number       Type             X           Y           Z
 ---------------------------------------------------------------------
      1          7           0       -2.872709   -1.833055   -0.566806
      2          6           0       -1.729281   -1.662443   -0.232788
      3          6           0       -0.299580   -1.417130    0.032100
      4          6           0        0.499316   -2.590098    0.129651
      5          6           0        1.902513   -2.268761    0.284941
      6          6           0        2.471278   -1.019451    0.036027
      7          6           0        1.631221    0.146176   -0.034448
      8          6           0        0.186330   -0.040036    0.066163
      9          6           0       -0.630575    1.163701    0.085388
     10          6           0       -0.054608    2.442581   -0.075478
     11          6           0        1.349680    2.593887   -0.203307
     12          6           0        2.171593    1.468885   -0.171528
     13          7           0       -3.267415    1.234912    0.445022
     14          6           0       -2.084727    1.121755    0.257359
     15          1           0        2.610967   -3.079958    0.538828
     16          1           0        3.559033   -0.866992   -0.041689
     17          1           0       -0.709864    3.323840   -0.103901
     18          1           0        1.779596    3.596235   -0.328236
     19          1           0        3.262182    1.579489   -0.257001
 ---------------------------------------------------------------------
 Rotational constants (GHZ):      0.9383326      0.7966108      0.4394192
 Standard basis: STO-3G (5D, 7F)
 There are    75 symmetry adapted cartesian basis functions of A   symmetry.
 There are    75 symmetry adapted basis functions of A   symmetry.
    75 basis functions,   225 primitive gaussians,    75 cartesian basis functions
    46 alpha electrons       46 beta electrons
       nuclear repulsion energy       714.5468701769 Hartrees.
 NAtoms=   19 NActive=   19 NUniq=   19 SFac= 1.00D+00 NAtFMM=   60 NAOKFM=F Big=F
 Integral buffers will be    131072 words long.
 Raffenetti 2 integral format.
 Two-electron integral symmetry is turned on.
 One-electron integrals computed using PRISM.
 NBasis=    75 RedAO= T EigKep=  1.77D-01  NBF=    75
 NBsUse=    75 1.00D-06 EigRej= -1.00D+00 NBFU=    75
 Initial guess from the checkpoint file:  "/tmp/bnp.472700.sequoia/Gau-13683.chk"
 B after Tr=     0.000000    0.000000    0.000000
         Rot=    0.997381   -0.003679    0.000031   -0.072228 Ang=  -8.29 deg.
 ExpMin= 1.69D-01 ExpMax= 9.91D+01 ExpMxC= 9.91D+01 IAcc=1 IRadAn=         1 AccDes= 0.00D+00
 Harris functional with IExCor=  402 and IRadAn=       1 diagonalized for initial guess.
 HarFok:  IExCor=  402 AccDes= 0.00D+00 IRadAn=         1 IDoV= 1 UseB2=F ITyADJ=14
 ICtDFT=  3500011 ScaDFX=  1.000000  1.000000  1.000000  1.000000
 FoFCou: FMM=F IPFlag=           0 FMFlag=      100000 FMFlg1=           0
         NFxFlg=           0 DoJE=T BraDBF=F KetDBF=T FulRan=T
         wScrn=  0.000000 ICntrl=     500 IOpCl=  0 I1Cent=   200000004 NGrid=           0
         NMat0=    1 NMatS0=      1 NMatT0=    0 NMatD0=    1 NMtDS0=    0 NMtDT0=    0
 Petite list used in FoFCou.
 Keep R1 ints in memory in canonical form, NReq=4993994.
 Requested convergence on RMS density matrix=1.00D-08 within 128 cycles.
 Requested convergence on MAX density matrix=1.00D-06.
 Requested convergence on             energy=1.00D-06.
 No special actions if energy rises.
 Integral accuracy reduced to 1.0D-05 until final iterations.
 Initial convergence to 1.0D-05 achieved.  Increase integral accuracy.
 SCF Done:  E(RB3LYP) =  -562.510311415     A.U. after   19 cycles
            NFock= 19  Conv=0.63D-08     -V/T= 2.0142
 Calling FoFJK, ICntrl=      2127 FMM=F ISym2X=0 I1Cent= 0 IOpClX= 0 NMat=1 NMatS=1 NMatT=0.
 ***** Axes restored to original set *****
 -------------------------------------------------------------------
 Center     Atomic                   Forces (Hartrees/Bohr)
 Number     Number              X              Y              Z
 -------------------------------------------------------------------
      1        7           0.002135453    0.008181058    0.003890533
      2        6          -0.007006249   -0.010831010   -0.007744453
      3        6           0.004946286    0.000231164    0.003098349
      4        6           0.002207553   -0.000173798    0.001692177
      5        6          -0.005492014    0.007656611   -0.001835524
      6        6           0.001739423    0.000725631    0.002185716
      7        6          -0.001442438   -0.002942874   -0.000819465
      8        6          -0.000988938   -0.002252404   -0.001397320
      9        6           0.002175911    0.001217689   -0.001835079
     10        6          -0.000484011    0.000300797    0.000313313
     11        6          -0.000056328   -0.000889471    0.000061997
     12        6           0.002314399    0.000488599    0.000014554
     13        7          -0.002231762    0.004336733   -0.001526306
     14        6          -0.000229377   -0.005346512    0.003496850
     15        1           0.001009830   -0.000596786   -0.000337060
     16        1           0.000935966   -0.000305848    0.000097451
     17        1          -0.000056766    0.000677190    0.000108478
     18        1           0.000384987   -0.000058393    0.000444658
     19        1           0.000138076   -0.000418377    0.000091130
 -------------------------------------------------------------------
 Cartesian Forces:  Max     0.010831010 RMS     0.003139076

 GradGradGradGradGradGradGradGradGradGradGradGradGradGradGradGradGradGrad
 Berny optimization.
 Using GEDIIS/GDIIS optimizer.
 FormGI is forming the generalized inverse of G from B-inverse, IUseBI=4.
 Internal  Forces:  Max     0.011097323 RMS     0.002283350
 Search for a local minimum.
 Step number   3 out of a maximum of  102
 All quantities printed in internal units (Hartrees-Bohrs-Radians)
 Mixed Optimization -- RFO/linear search
 Update second derivatives using D2CorX and points    2    3
 DE= -1.60D-03 DEPred=-3.82D-03 R= 4.19D-01
 Trust test= 4.19D-01 RLast= 4.18D-01 DXMaxT set to 5.05D-01
 ITU=  0  1  0
 Use linear search instead of GDIIS.
     Eigenvalues ---    0.01468   0.01677   0.01760   0.01781   0.01851
     Eigenvalues ---    0.01912   0.01937   0.02020   0.02055   0.02123
     Eigenvalues ---    0.02140   0.02182   0.02198   0.02248   0.02284
     Eigenvalues ---    0.04704   0.04817   0.05107   0.15554   0.15973
     Eigenvalues ---    0.15996   0.16000   0.16074   0.19618   0.22132
     Eigenvalues ---    0.22781   0.23455   0.24730   0.24879   0.24959
     Eigenvalues ---    0.26289   0.34810   0.34818   0.34875   0.35122
     Eigenvalues ---    0.35262   0.38363   0.38913   0.39221   0.39647
     Eigenvalues ---    0.40160   0.42552   0.43258   0.43839   0.45271
     Eigenvalues ---    0.45926   0.46258   0.47411   0.49793   1.28644
     Eigenvalues ---    1.34531
 RFO step:  Lambda=-3.99229659D-03 EMin= 1.46760972D-02
 Quartic linear search produced a step of -0.35792.
 Iteration  1 RMS(Cart)=  0.05456871 RMS(Int)=  0.00955910
 Iteration  2 RMS(Cart)=  0.01591543 RMS(Int)=  0.00056233
 Iteration  3 RMS(Cart)=  0.00061206 RMS(Int)=  0.00019401
 Iteration  4 RMS(Cart)=  0.00000079 RMS(Int)=  0.00019401
 Variable       Old X    -DE/DX   Delta X   Delta X   Delta X     New X
                                 (Linear)    (Quad)   (Total)
    R1        2.27404  -0.00627  -0.00345  -0.00197  -0.00542   2.26863
    R2        2.78655  -0.00037  -0.00834   0.01646   0.00812   2.79467
    R3        2.68820   0.00412  -0.00357   0.01235   0.00873   2.69693
    R4        2.76033   0.00124  -0.00202   0.00170  -0.00040   2.75993
    R5        2.73608   0.00426  -0.01353   0.03399   0.02048   2.75657
    R6        2.63630  -0.00328   0.00603  -0.02453  -0.01837   2.61794
    R7        2.09104  -0.00020  -0.00223   0.00229   0.00006   2.09109
    R8        2.71842   0.00235  -0.00360   0.00699   0.00343   2.72185
    R9        2.08084  -0.00078  -0.00032  -0.00278  -0.00310   2.07774
   R10        2.75959   0.00077  -0.00088  -0.00422  -0.00518   2.75441
   R11        2.71250  -0.00238  -0.00016  -0.00959  -0.00968   2.70281
   R12        2.74933   0.00105  -0.00063  -0.00069  -0.00139   2.74794
   R13        2.66790  -0.00002   0.00324  -0.01134  -0.00815   2.65974
   R14        2.76823   0.00024  -0.00382   0.00654   0.00272   2.77095
   R15        2.67999  -0.00202  -0.00258  -0.00133  -0.00390   2.67609
   R16        2.07594  -0.00056  -0.00079  -0.00038  -0.00116   2.07477
   R17        2.63356  -0.00087   0.00280  -0.01099  -0.00811   2.62545
   R18        2.07452  -0.00044  -0.00083  -0.00039  -0.00122   2.07330
   R19        2.07777  -0.00044  -0.00130   0.00124  -0.00007   2.07771
   R20        2.27300  -0.00509  -0.00289  -0.00232  -0.00521   2.26779
    A1        2.00386   0.00093  -0.00070   0.00257   0.00177   2.00563
    A2        2.07551  -0.00024   0.01473  -0.03700  -0.02238   2.05313
    A3        2.20055  -0.00075  -0.01350   0.03198   0.01850   2.21905
    A4        1.94833   0.00187   0.02665  -0.05890  -0.03198   1.91634
    A5        2.18307  -0.00244  -0.01342   0.02346   0.01073   2.19379
    A6        2.07419   0.00007   0.00430  -0.01309  -0.00892   2.06527
    A7        2.02241   0.00239   0.01028  -0.01440  -0.00431   2.01810
    A8        2.09012   0.00107   0.00382  -0.00649  -0.00227   2.08784
    A9        2.14043  -0.00119  -0.00983   0.01817   0.00813   2.14856
   A10        2.05018   0.00014   0.00631  -0.01176  -0.00561   2.04457
   A11        2.06134   0.00243   0.00679  -0.01052  -0.00356   2.05778
   A12        2.13119  -0.00303  -0.00837   0.01183   0.00336   2.13455
   A13        2.09044   0.00059   0.00154  -0.00141   0.00004   2.09048
   A14        2.03505  -0.00209   0.00050  -0.00755  -0.00680   2.02824
   A15        2.20625   0.00340   0.00138   0.00585   0.00752   2.21377
   A16        2.03865  -0.00127  -0.00078  -0.00086  -0.00153   2.03712
   A17        2.11637  -0.00034  -0.00041   0.00046   0.00017   2.11654
   A18        2.13559   0.00465   0.00053   0.00984   0.01083   2.14642
   A19        2.03118  -0.00429  -0.00089  -0.01058  -0.01101   2.02017
   A20        2.10701   0.00072   0.00088  -0.00097  -0.00018   2.10683
   A21        2.07864  -0.00001   0.00154  -0.00204  -0.00040   2.07824
   A22        2.09753  -0.00071  -0.00251   0.00296   0.00054   2.09808
   A23        2.08956  -0.00032  -0.00061  -0.00020  -0.00077   2.08879
   A24        2.08915   0.00002   0.00233  -0.00607  -0.00369   2.08546
   A25        2.10447   0.00031  -0.00185   0.00625   0.00445   2.10892
   A26        2.12237   0.00061  -0.00093   0.00328   0.00242   2.12479
   A27        2.06409  -0.00021   0.00613  -0.01475  -0.00864   2.05545
   A28        2.09671  -0.00041  -0.00521   0.01146   0.00624   2.10295
   A29        3.14931   0.01110   0.04241   0.20934   0.25175   3.40106
   A30        3.27066   0.00124  -0.01189   0.04167   0.02978   3.30044
   A31        3.24785  -0.01074  -0.05835  -0.16040  -0.21875   3.02911
   A32        3.14023   0.00115  -0.00154   0.01229   0.01075   3.15098
    D1        3.06273  -0.00107   0.00118  -0.02539  -0.02407   3.03866
    D2        0.00941  -0.00032  -0.00747   0.00961   0.00247   0.01188
    D3       -2.85912   0.00060  -0.02641   0.07424   0.04804  -2.81108
    D4        0.19282   0.00111  -0.00148   0.03881   0.03726   0.23008
    D5        0.19092  -0.00013  -0.01804   0.03993   0.02204   0.21296
    D6       -3.04032   0.00038   0.00689   0.00449   0.01126  -3.02906
    D7       -0.26809   0.00069   0.04435  -0.08750  -0.04312  -0.31121
    D8        2.96753   0.00030   0.01957  -0.03298  -0.01382   2.95370
    D9        0.30992  -0.00074  -0.05283   0.10797   0.05475   0.36467
   D10       -2.90896  -0.00044  -0.04739   0.10625   0.05845  -2.85051
   D11       -2.92320  -0.00046  -0.02877   0.05488   0.02591  -2.89730
   D12        0.14110  -0.00017  -0.02334   0.05316   0.02960   0.17071
   D13       -0.07409  -0.00004   0.01935  -0.03732  -0.01854  -0.09262
   D14        3.04511  -0.00039   0.01747  -0.04276  -0.02578   3.01933
   D15        3.14085  -0.00026   0.01476  -0.03699  -0.02261   3.11824
   D16       -0.02314  -0.00061   0.01287  -0.04243  -0.02985  -0.05299
   D17       -0.15345  -0.00012   0.01135  -0.02458  -0.01333  -0.16678
   D18        3.06896  -0.00084  -0.01115   0.00696  -0.00419   3.06477
   D19        3.01000   0.00027   0.01335  -0.01945  -0.00632   3.00368
   D20       -0.05078  -0.00045  -0.00915   0.01209   0.00282  -0.04796
[...]
 ! D14   D(5,6,7,12)           173.9718         -DE/DX =    0.0                 !
 ! D15   D(16,6,7,8)           179.6102         -DE/DX =    0.0                 !
 ! D16   D(16,6,7,12)           -2.5606         -DE/DX =    0.0                 !
 ! D17   D(6,7,8,3)             -8.2443         -DE/DX =    0.0                 !
 ! D18   D(6,7,8,9)            174.578          -DE/DX =    0.0                 !
 ! D19   D(12,7,8,3)           173.8863         -DE/DX =    0.0                 !
 ! D20   D(12,7,8,9)            -3.2914         -DE/DX =    0.0                 !
 ! D21   D(6,7,12,11)         -176.7937         -DE/DX =    0.0                 !
 ! D22   D(6,7,12,19)            2.8338         -DE/DX =    0.0                 !
 ! D23   D(8,7,12,11)            0.9992         -DE/DX =    0.0                 !
 ! D24   D(8,7,12,19)         -179.3733         -DE/DX =    0.0                 !
 ! D25   D(3,8,9,10)          -173.0133         -DE/DX =    0.0                 !
 ! D26   D(3,8,9,14)             8.3611         -DE/DX =    0.0                 !
 ! D27   D(7,8,9,10)             3.838          -DE/DX =    0.0                 !
 ! D28   D(7,8,9,14)          -174.7876         -DE/DX =    0.0                 !
 ! D29   D(8,9,10,11)           -2.0612         -DE/DX =    0.0                 !
 ! D30   D(8,9,10,17)          178.1214         -DE/DX =    0.0                 !
 ! D31   D(14,9,10,11)         176.657          -DE/DX =    0.0                 !
 ! D32   D(14,9,10,17)          -3.1605         -DE/DX =    0.0                 !
 ! D33   D(9,10,11,12)          -0.4173         -DE/DX =    0.0                 !
 ! D34   D(9,10,11,18)        -179.7903         -DE/DX =    0.0                 !
 ! D35   D(17,10,11,12)        179.3986         -DE/DX =    0.0                 !
 ! D36   D(17,10,11,18)          0.0255         -DE/DX =    0.0                 !
 ! D37   D(10,11,12,7)           0.9353         -DE/DX =    0.0                 !
 ! D38   D(10,11,12,19)       -178.686          -DE/DX =    0.0                 !
 ! D39   D(18,11,12,7)        -179.6978         -DE/DX =    0.0                 !
 ! D40   D(18,11,12,19)          0.6809         -DE/DX =    0.0                 !
 --------------------------------------------------------------------------------
 GradGradGradGradGradGradGradGradGradGradGradGradGradGradGradGradGradGrad

                          Input orientation:                          
 ---------------------------------------------------------------------
 Center     Atomic      Atomic             Coordinates (Angstroms)
 Number     Number       Type             X           Y           Z
 ---------------------------------------------------------------------
      1          7           0        7.272146   -2.996636   -0.181998
      2          6           0        6.495898   -2.086504   -0.079077
      3          6           0        5.665658   -0.871400    0.017682
      4          6           0        6.392298    0.354569    0.003209
      5          6           0        5.498611    1.507519   -0.011292
      6          6           0        4.136485    1.455430   -0.283781
      7          6           0        3.437465    0.194451   -0.237258
      8          6           0        4.212070   -1.015562    0.015652
      9          6           0        3.461977   -2.249667    0.176418
     10          6           0        2.059673   -2.280715    0.011018
     11          6           0        1.336401   -1.097141   -0.274892
     12          6           0        2.016006    0.115262   -0.385943
     13          7           0        4.465000   -4.610554    0.882283
     14          6           0        4.090145   -3.521280    0.543999
     15          1           0        5.937762    2.513441    0.123265
     16          1           0        3.540099    2.358664   -0.481946
     17          1           0        1.530374   -3.237529    0.109750
     18          1           0        0.246926   -1.141342   -0.396476
     19          1           0        1.459666    1.041643   -0.586194
 ---------------------------------------------------------------------
                    Distance matrix (angstroms):
                    1          2          3          4          5
     1  N    0.000000
     2  C    1.200623   0.000000
     3  C    2.671574   1.474835   0.000000
     4  C    3.469727   2.444655   1.425207   0.000000
     5  C    4.843756   3.730439   2.384952   1.458829   0.000000
     6  C    5.446432   4.260754   2.800605   2.526451   1.390090
     7  C    4.989074   3.818610   2.483118   2.968922   2.454288
     8  C    3.650724   2.524234   1.460721   2.575036   2.832288
     9  C    3.899207   3.049029   2.604041   3.924134   4.277799
    10  C    5.264948   4.441387   3.871606   5.071136   5.116395
    11  C    6.232960   5.257147   4.345000   5.267533   4.917086
    12  C    6.111671   5.001137   3.802154   4.400073   3.769255
    13  N    3.408445   3.379288   4.021243   5.398119   6.268783
    14  C    3.305671   2.869574   3.127478   4.540327   5.251756
    15  H    5.677563   4.638098   3.397402   2.209468   1.105821
    16  H    6.534323   5.353369   3.898838   3.519490   2.186717
    17  H    5.754224   5.100680   4.765251   6.045893   6.186843
    18  H    7.269239   6.328011   5.441237   6.337437   5.894492
    19  H    7.089146   5.950302   4.659910   5.015010   4.106169
                    6          7          8          9         10
     6  C    0.000000
     7  C    1.442519   0.000000
     8  C    2.490216   1.458803   0.000000
     9  C    3.794007   2.479000   1.453100   0.000000
    10  C    4.284720   2.843658   2.496686   1.412365   0.000000
    11  C    3.788953   2.466596   2.891461   2.459689   1.416233
    12  C    2.510561   1.431407   2.502547   2.828423   2.429031
    13  N    6.185773   5.039570   3.706614   2.660468   3.460181
    14  C    5.045296   3.852662   2.563715   1.465165   2.438418
    15  H    2.128303   3.429166   3.929817   5.368383   6.167341
    16  H    1.100353   2.180419   3.476284   4.655777   4.894743
    17  H    5.382429   3.941560   3.483889   2.170577   1.097907
    18  H    4.678098   3.462548   3.988488   3.448644   2.179513
    19  H    2.725441   2.179721   3.488558   3.927283   3.428517
                   11         12         13         14         15
    11  C    0.000000
    12  C    1.394316   0.000000
    13  N    4.844715   5.471683   0.000000
    14  C    3.759008   4.288506   1.200613   0.000000
    15  H    5.862368   4.625011   7.314127   6.325233   0.000000
    16  H    4.103870   2.713840   7.161464   5.994068   2.477705
    17  H    2.183308   3.423851   3.330771   2.611802   7.245613
    18  H    1.097129   2.169979   5.609172   4.617242   6.783303
    19  H    2.164833   1.098997   6.567785   5.386745   4.766850
                   16         17         18         19
    16  H    0.000000
    17  H    5.975489   0.000000
    18  H    4.806490   2.509482   0.000000
    19  H    2.464470   4.335972   2.504428   0.000000
 Stoichiometry    C12H5N2(1-)
 Framework group  C1[X(C12H5N2)]
 Deg. of freedom    51
 Full point group                 C1      NOp   1
 Largest Abelian subgroup         C1      NOp   1
 Largest concise Abelian subgroup C1      NOp   1
                         Standard orientation:                         
 ---------------------------------------------------------------------
 Center     Atomic      Atomic             Coordinates (Angstroms)
 Number     Number       Type             X           Y           Z
 ---------------------------------------------------------------------
      1          7           0       -2.958197   -1.832703   -0.495214
      2          6           0       -1.812027   -1.565664   -0.257561
      3          6           0       -0.372728   -1.392913    0.013939
      4          6           0        0.364931   -2.606333    0.135120
      5          6           0        1.793121   -2.352505    0.290127
      6          6           0        2.415569   -1.133066    0.049549
      7          6           0        1.630394    0.073342   -0.045006
      8          6           0        0.178071   -0.040142    0.032360
      9          6           0       -0.573950    1.203004    0.055844
     10          6           0        0.072355    2.452001   -0.074815
     11          6           0        1.481703    2.531203   -0.189609
     12          6           0        2.241363    1.362267   -0.164661
     13          7           0       -3.197270    1.438777    0.430939
     14          6           0       -2.026290    1.251773    0.243035
     15          1           0        2.453346   -3.203994    0.538940
     16          1           0        3.509303   -1.032615   -0.017017
     17          1           0       -0.531813    3.368681   -0.083691
     18          1           0        1.965376    3.511156   -0.286796
     19          1           0        3.336990    1.416456   -0.231437
 ---------------------------------------------------------------------
 Rotational constants (GHZ):      0.9240254      0.7989880      0.4359623

 **********************************************************************

            Population analysis using the SCF density.

 **********************************************************************

 Orbital symmetries:
       Occupied  (A) (A) (A) (A) (A) (A) (A) (A) (A) (A) (A) (A)
                 (A) (A) (A) (A) (A) (A) (A) (A) (A) (A) (A) (A)
                 (A) (A) (A) (A) (A) (A) (A) (A) (A) (A) (A) (A)
                 (A) (A) (A) (A) (A) (A) (A) (A) (A) (A)
       Virtual   (A) (A) (A) (A) (A) (A) (A) (A) (A) (A) (A) (A)
                 (A) (A) (A) (A) (A) (A) (A) (A) (A) (A) (A) (A)
                 (A) (A) (A) (A) (A)
 The electronic state is 1-A.
 Alpha  occ. eigenvalues --  -13.98122 -13.92501  -9.90194  -9.88556  -9.88170
 Alpha  occ. eigenvalues --   -9.87565  -9.87477  -9.87315  -9.86761  -9.83642
 Alpha  occ. eigenvalues --   -9.83318  -9.82691  -9.81448  -9.69055  -0.71396
 Alpha  occ. eigenvalues --   -0.67623  -0.66585  -0.61188  -0.58804  -0.53293
 Alpha  occ. eigenvalues --   -0.51962  -0.44773  -0.41915  -0.40185  -0.35267
 Alpha  occ. eigenvalues --   -0.31732  -0.29571  -0.27842  -0.25500  -0.23339
 Alpha  occ. eigenvalues --   -0.21362  -0.20425  -0.18761  -0.17250  -0.15176
 Alpha  occ. eigenvalues --   -0.14348  -0.13424  -0.12786  -0.12312  -0.09919
 Alpha  occ. eigenvalues --   -0.09119  -0.07054  -0.06323  -0.02187   0.01482
 Alpha  occ. eigenvalues --    0.10116
 Alpha virt. eigenvalues --    0.16927   0.22534   0.24490   0.26461   0.30868
 Alpha virt. eigenvalues --    0.32324   0.34875   0.37781   0.44064   0.45556
 Alpha virt. eigenvalues --    0.47890   0.50465   0.53316   0.55186   0.57467
 Alpha virt. eigenvalues --    0.57687   0.59845   0.63524   0.66759   0.68877
 Alpha virt. eigenvalues --    0.71888   0.74160   0.79294   0.82327   0.84874
 Alpha virt. eigenvalues --    0.92208   0.93047   1.07040   1.11162
          Condensed to atoms (all electrons):
               1          2          3          4          5          6
     1  N    6.621894   0.658624  -0.010974  -0.000309  -0.000001   0.000000
     2  C    0.658624   4.968467   0.405245  -0.035640   0.001404   0.000011
     3  C   -0.010974   0.405245   4.880347   0.457339  -0.030296  -0.011920
     4  C   -0.000309  -0.035640   0.457339   5.415200   0.418035  -0.019502
     5  C   -0.000001   0.001404  -0.030296   0.418035   4.901905   0.513639
     6  C    0.000000   0.000011  -0.011920  -0.019502   0.513639   4.876356
     7  C   -0.000001   0.000739  -0.030061  -0.007152  -0.029838   0.463756
     8  C    0.000150  -0.034842   0.443530  -0.019075  -0.011394  -0.028058
     9  C   -0.000022  -0.003209  -0.022354   0.000542   0.000044   0.000780
    10  C    0.000000   0.000009   0.000563  -0.000005   0.000000   0.000033
    11  C    0.000000   0.000000   0.000028   0.000000  -0.000008   0.000779
    12  C    0.000000  -0.000006   0.000729   0.000014   0.000751  -0.028933
    13  N   -0.000439  -0.000543   0.000000   0.000000   0.000000   0.000000
    14  C   -0.000318   0.003095  -0.002698   0.000009   0.000000  -0.000005
    15  H    0.000000  -0.000013   0.002020  -0.031234   0.379996  -0.034208
    16  H    0.000000   0.000001   0.000086   0.001133  -0.023827   0.381514
    17  H    0.000000   0.000000  -0.000013   0.000000   0.000000   0.000001
    18  H    0.000000   0.000000   0.000000   0.000000   0.000000  -0.000016
    19  H    0.000000   0.000000  -0.000016   0.000000   0.000022  -0.003648
               7          8          9         10         11         12
     1  N   -0.000001   0.000150  -0.000022   0.000000   0.000000   0.000000
     2  C    0.000739  -0.034842  -0.003209   0.000009   0.000000  -0.000006
     3  C   -0.030061   0.443530  -0.022354   0.000563   0.000028   0.000729
     4  C   -0.007152  -0.019075   0.000542  -0.000005   0.000000   0.000014
     5  C   -0.029838  -0.011394   0.000044   0.000000  -0.000008   0.000751
     6  C    0.463756  -0.028058   0.000780   0.000033   0.000779  -0.028933
     7  C    4.806805   0.455847  -0.027091  -0.009546  -0.027787   0.476281
     8  C    0.455847   4.823144   0.456323  -0.026408  -0.007989  -0.024961
     9  C   -0.027091   0.456323   4.779679   0.500150  -0.028443  -0.009910
    10  C   -0.009546  -0.026408   0.500150   4.834769   0.487721  -0.030208
    11  C   -0.027787  -0.007989  -0.028443   0.487721   4.829261   0.515112
    12  C    0.476281  -0.024961  -0.009910  -0.030208   0.515112   4.831757
    13  N   -0.000001   0.000096  -0.010766  -0.000430   0.000000   0.000000
    14  C    0.000750  -0.025278   0.417223  -0.033511   0.000939   0.000015
    15  H    0.001469   0.000001   0.000001   0.000000   0.000000  -0.000019
    16  H   -0.027622   0.001189  -0.000014  -0.000001   0.000015  -0.003674
    17  H    0.000034   0.001173  -0.025407   0.387520  -0.024906   0.001389
    18  H    0.001332   0.000017   0.001309  -0.025381   0.388184  -0.025266
    19  H   -0.025395   0.001228   0.000028   0.001452  -0.026124   0.385679
              13         14         15         16         17         18
     1  N   -0.000439  -0.000318   0.000000   0.000000   0.000000   0.000000
     2  C   -0.000543   0.003095  -0.000013   0.000001   0.000000   0.000000
     3  C    0.000000  -0.002698   0.002020   0.000086  -0.000013   0.000000
     4  C    0.000000   0.000009  -0.031234   0.001133   0.000000   0.000000
     5  C    0.000000   0.000000   0.379996  -0.023827   0.000000   0.000000
     6  C    0.000000  -0.000005  -0.034208   0.381514   0.000001  -0.000016
     7  C   -0.000001   0.000750   0.001469  -0.027622   0.000034   0.001332
     8  C    0.000096  -0.025278   0.000001   0.001189   0.001173   0.000017
     9  C   -0.010766   0.417223   0.000001  -0.000014  -0.025407   0.001309
    10  C   -0.000430  -0.033511   0.000000  -0.000001   0.387520  -0.025381
    11  C    0.000000   0.000939   0.000000   0.000015  -0.024906   0.388184
    12  C    0.000000   0.000015  -0.000019  -0.003674   0.001389  -0.025266
    13  N    6.578321   0.660111   0.000000   0.000000   0.000051   0.000000
    14  C    0.660111   4.928480   0.000000   0.000000  -0.004048  -0.000018
    15  H    0.000000   0.000000   0.659361  -0.003578   0.000000   0.000000
    16  H    0.000000   0.000000  -0.003578   0.637015   0.000000  -0.000001
    17  H    0.000051  -0.004048   0.000000   0.000000   0.605185  -0.003441
    18  H    0.000000  -0.000018   0.000000  -0.000001  -0.003441   0.614128
    19  H    0.000000   0.000001  -0.000002   0.001075  -0.000035  -0.003673
              19
     1  N    0.000000
     2  C    0.000000
     3  C   -0.000016
     4  C    0.000000
     5  C    0.000022
     6  C   -0.003648
     7  C   -0.025395
     8  C    0.001228
     9  C    0.000028
    10  C    0.001452
    11  C   -0.026124
    12  C    0.385679
    13  N    0.000000
    14  C    0.000001
    15  H   -0.000002
    16  H    0.001075
    17  H   -0.000035
    18  H   -0.003673
    19  H    0.614276
 Mulliken charges:
               1
     1  N   -0.268603
     2  C    0.036658
     3  C   -0.081557
     4  C   -0.179355
     5  C   -0.120432
     6  C   -0.110577
     7  C   -0.022517
     8  C   -0.004694
     9  C   -0.028862
    10  C   -0.086727
    11  C   -0.106784
    12  C   -0.088750
    13  N   -0.226401
    14  C    0.055253
    15  H    0.026206
    16  H    0.036688
    17  H    0.062498
    18  H    0.052824
    19  H    0.055132
 Sum of Mulliken charges =  -1.00000
 Mulliken charges with hydrogens summed into heavy atoms:
               1
     1  N   -0.268603
     2  C    0.036658
     3  C   -0.081557
     4  C   -0.179355
     5  C   -0.094227
     6  C   -0.073889
     7  C   -0.022517
     8  C   -0.004694
     9  C   -0.028862
    10  C   -0.024229
    11  C   -0.053960
    12  C   -0.033618
    13  N   -0.226401
    14  C    0.055253
 Electronic spatial extent (au):  <R**2>=           2419.6675
 Charge=             -1.0000 electrons
 Dipole moment (field-independent basis, Debye):
    X=              5.6529    Y=              5.7119    Z=              0.0038  Tot=              8.0362
 Quadrupole moment (field-independent basis, Debye-Ang):
   XX=           -103.4854   YY=            -96.8291   ZZ=            -75.0183
   XY=             -1.2511   XZ=             -0.8859   YZ=             -1.5962
 Traceless Quadrupole moment (field-independent basis, Debye-Ang):
   XX=            -11.7078   YY=             -5.0515   ZZ=             16.7593
   XY=             -1.2511   XZ=             -0.8859   YZ=             -1.5962
 Octapole moment (field-independent basis, Debye-Ang**2):
  XXX=             90.2517  YYY=             63.4304  ZZZ=              0.1224  XYY=             12.8864
  XXY=             10.7834  XXZ=              0.0173  XZZ=             -4.3342  YZZ=             -0.3140
  YYZ=             -0.4802  XYZ=              8.0921
 Hexadecapole moment (field-independent basis, Debye-Ang**3):
 XXXX=          -1914.2440 YYYY=          -1594.9634 ZZZZ=            -82.8125 XXXY=             -0.1159
 XXXZ=             -4.5905 YYYX=             -6.5994 YYYZ=             -1.9471 ZZZX=             -0.4028
 ZZZY=              3.8057 XXYY=           -587.4704 XXZZ=           -289.3192 YYZZ=           -260.8811
 XXYZ=            -27.5660 YYXZ=             -5.7116 ZZXY=             -1.0485
 N-N= 7.133388573409D+02 E-N=-2.749215693664D+03  KE= 5.546561572853D+02
 1\1\GINC-N043\FOpt\RB3LYP\STO-3G\C12H5N2(1-)\R2532\15-Jun-2021\0\\#N B
 3LYP/STO-3G OPT\\1Naph\\-1,1\N,7.272146446,-2.9966356165,-0.181997649\
 C,6.4958977519,-2.0865035897,-0.0790773234\C,5.665657928,-0.8713996469
 ,0.0176817569\C,6.3922983471,0.3545686186,0.0032091448\C,5.4986108979,
 1.5075188921,-0.0112918516\C,4.136484776,1.4554298764,-0.2837813315\C,
 3.4374654342,0.1944505151,-0.2372578655\C,4.2120697401,-1.0155622783,0
 .0156524997\C,3.4619767327,-2.2496670871,0.1764183072\C,2.0596734634,-
 2.2807145109,0.0110178711\C,1.3364005825,-1.0971408826,-0.2748918009\C
 ,2.016005597,0.115262394,-0.3859428106\N,4.4650002996,-4.6105541805,0.
 8822833464\C,4.090144578,-3.5212797692,0.5439994603\H,5.9377619449,2.5
 134414557,0.1232647659\H,3.5400994961,2.3586637979,-0.4819463771\H,1.5
 303741545,-3.237528671,0.1097501715\H,0.2469256251,-1.1413424881,-0.39
 64763473\H,1.459666205,1.0416431711,-0.5861939669\\Version=ES64L-G09Re
 vD.01\State=1-A\HF=-562.5118714\RMSD=7.530e-09\RMSF=2.550e-05\Dipole=-
 3.0234986,0.9038408,-0.1946736\Quadrupole=-5.6556602,-6.5447805,12.200
 4407,2.6562904,0.5438644,2.4664774\PG=C01 [X(C12H5N2)]\\@


 ERROR IS A HARDY PLANT... IT FLOURISHETH IN EVERY SOIL.
            MARTIN FARQUHAR TUPPER
 Job cpu time:       0 days  0 hours  6 minutes  7.1 seconds.
 File lengths (MBytes):  RWF=      5 Int=      0 D2E=      0 Chk=      2 Scr=      1
 Normal termination of Gaussian 09 at Tue Jun 15 11:21:02 2021.
