 Entering Gaussian System, Link 0=/usr/local/apps//g09/g09
 Input=12.com
 Output=12.out
 Initial command:
 /usr/local/apps//g09/l1.exe "/tmp/bnp.472654.sequoia/Gau-26512.inp" -scrdir="/tmp/bnp.472654.sequoia/"
 Entering Link 1 = /usr/local/apps//g09/l1.exe PID=     26513.
  
 Copyright (c) 1988,1990,1992,1993,1995,1998,2003,2009,2013,
            Gaussian, Inc.  All Rights Reserved.
  
 This is part of the Gaussian(R) 09 program.  It is based on
 the Gaussian(R) 03 system (copyright 2003, Gaussian, Inc.),
 the Gaussian(R) 98 system (copyright 1998, Gaussian, Inc.),
 the Gaussian(R) 94 system (copyright 1995, Gaussian, Inc.),
 the Gaussian 92(TM) system (copyright 1992, Gaussian, Inc.),
 the Gaussian 90(TM) system (copyright 1990, Gaussian, Inc.),
 the Gaussian 88(TM) system (copyright 1988, Gaussian, Inc.),
 the Gaussian 86(TM) system (copyright 1986, Carnegie Mellon
 University), and the Gaussian 82(TM) system (copyright 1983,
 Carnegie Mellon University). Gaussian is a federally registered
 trademark of Gaussian, Inc.
  
 This software contains proprietary and confidential information,
 including trade secrets, belonging to Gaussian, Inc.
  
 This software is provided under written license and may be
 used, copied, transmitted, or stored only in accord with that
 written license.
  
 The following legend is applicable only to US Government
 contracts under FAR:
  
                    RESTRICTED RIGHTS LEGEND
  
 Use, reproduction and disclosure by the US Government is
 subject to restrictions as set forth in subparagraphs (a)
 and (c) of the Commercial Computer Software - Restricted
 Rights clause in FAR 52.227-19.
  
 Gaussian, Inc.
 340 Quinnipiac St., Bldg. 40, Wallingford CT 06492
  
  
 ---------------------------------------------------------------
 Warning -- This program may not be used in any manner that
 competes with the business of Gaussian, Inc. or will provide
 assistance to any competitor of Gaussian, Inc.  The licensee
 of this program is prohibited from giving any competitor of
 Gaussian, Inc. access to this program.  By using this program,
 the user acknowledges that Gaussian, Inc. is engaged in the
 business of creating and licensing software in the field of
 computational chemistry and represents and warrants to the
 licensee that it is not a competitor of Gaussian, Inc. and that
 it will not use this program in any manner prohibited above.
 ---------------------------------------------------------------
  

 Cite this work as:
 Gaussian 09, Revision D.01,
 M. J. Frisch, G. W. Trucks, H. B. Schlegel, G. E. Scuseria, 
 M. A. Robb, J. R. Cheeseman, G. Scalmani, V. Barone, B. Mennucci, 
 G. A. Petersson, H. Nakatsuji, M. Caricato, X. Li, H. P. Hratchian, 
 A. F. Izmaylov, J. Bloino, G. Zheng, J. L. Sonnenberg, M. Hada, 
 M. Ehara, K. Toyota, R. Fukuda, J. Hasegawa, M. Ishida, T. Nakajima, 
 Y. Honda, O. Kitao, H. Nakai, T. Vreven, J. A. Montgomery, Jr., 
 J. E. Peralta, F. Ogliaro, M. Bearpark, J. J. Heyd, E. Brothers, 
 K. N. Kudin, V. N. Staroverov, T. Keith, R. Kobayashi, J. Normand, 
 K. Raghavachari, A. Rendell, J. C. Burant, S. S. Iyengar, J. Tomasi, 
 M. Cossi, N. Rega, J. M. Millam, M. Klene, J. E. Knox, J. B. Cross, 
 V. Bakken, C. Adamo, J. Jaramillo, R. Gomperts, R. E. Stratmann, 
 O. Yazyev, A. J. Austin, R. Cammi, C. Pomelli, J. W. Ochterski, 
 R. L. Martin, K. Morokuma, V. G. Zakrzewski, G. A. Voth, 
 P. Salvador, J. J. Dannenberg, S. Dapprich, A. D. Daniels, 
 O. Farkas, J. B. Foresman, J. V. Ortiz, J. Cioslowski, 
 and D. J. Fox, Gaussian, Inc., Wallingford CT, 2013.
 
 ******************************************
 Gaussian 09:  ES64L-G09RevD.01 24-Apr-2013
                15-Jun-2021 
 ******************************************
 -------------------
 #N B3LYP/STO-3G OPT
 -------------------
 1/14=-1,18=20,19=15,26=3,38=1/1,3;
 2/9=110,12=2,17=6,18=5,40=1/2;
 3/6=3,11=2,16=1,25=1,30=1,71=1,74=-5/1,2,3;
 4//1;
 5/5=2,38=5/2;
 6/7=2,8=2,9=2,10=2,28=1/1;
 7//1,2,3,16;
 1/14=-1,18=20,19=15,26=3/3(2);
 2/9=110/2;
 99//99;
 2/9=110/2;
 3/6=3,11=2,16=1,25=1,30=1,71=1,74=-5/1,2,3;
 4/5=5,16=3,69=1/1;
 5/5=2,38=5/2;
 7//1,2,3,16;
 1/14=-1,18=20,19=15,26=3/3(-5);
 2/9=110/2;
 6/7=2,8=2,9=2,10=2,19=2,28=1/1;
 99/9=1/99;
 -----
 2Naph
 -----
 Symbolic Z-matrix:
 Charge = -1 Multiplicity = 1
 N                     8.94067   3.93948  -0.48695 
 C                     7.94497   3.33218  -0.41048 
 C                     6.79194   1.33054  -1.06069 
 C                     6.84849   2.40663  -0.17621 
 C                     6.6325    2.13175   1.1707 
 C                     7.11909   0.91533   1.64892 
 C                     7.61268  -0.04202   0.72991 
 C                     7.21952   0.0835   -0.61586 
 C                     7.43213  -0.96     -1.5213 
 C                     8.3166   -1.97935  -1.18266 
 C                     8.94436  -1.96586   0.06095 
 C                     8.53924  -1.05552   1.03767 
 N                     7.20382   0.56002   4.21502 
 C                     7.17929   0.70913   3.06444 
 H                     6.3962    2.93749   1.8634 
 H                     6.99173  -0.94102  -2.5163 
 H                     8.57364  -2.74108  -1.914 
 H                     9.75251  -2.66164   0.2707 
 H                     9.03479  -1.07222   2.00747 
 

 GradGradGradGradGradGradGradGradGradGradGradGradGradGradGradGradGradGrad
 Berny optimization.
 Initialization pass.
                           ----------------------------
                           !    Initial Parameters    !
                           ! (Angstroms and Degrees)  !
 --------------------------                            --------------------------
 ! Name  Definition              Value          Derivative Info.                !
 --------------------------------------------------------------------------------
 ! R1    R(1,2)                  1.1688         estimate D2E/DX2                !
 ! R2    R(2,4)                  1.4539         estimate D2E/DX2                !
 ! R3    R(3,4)                  1.3941         estimate D2E/DX2                !
 ! R4    R(3,8)                  1.3913         estimate D2E/DX2                !
 ! R5    R(4,5)                  1.3915         estimate D2E/DX2                !
 ! R6    R(5,6)                  1.3947         estimate D2E/DX2                !
 ! R7    R(5,15)                 1.0885         estimate D2E/DX2                !
 ! R8    R(6,7)                  1.4159         estimate D2E/DX2                !
 ! R9    R(6,14)                 1.4317         estimate D2E/DX2                !
 ! R10   R(7,8)                  1.4076         estimate D2E/DX2                !
 ! R11   R(7,12)                 1.4073         estimate D2E/DX2                !
 ! R12   R(8,9)                  1.3978         estimate D2E/DX2                !
 ! R13   R(9,10)                 1.3914         estimate D2E/DX2                !
 ! R14   R(9,16)                 1.0883         estimate D2E/DX2                !
 ! R15   R(10,11)                1.3931         estimate D2E/DX2                !
 ! R16   R(10,17)                1.0868         estimate D2E/DX2                !
 ! R17   R(11,12)                1.3953         estimate D2E/DX2                !
 ! R18   R(11,18)                1.0868         estimate D2E/DX2                !
 ! R19   R(12,19)                1.0892         estimate D2E/DX2                !
 ! R20   R(13,14)                1.1605         estimate D2E/DX2                !
 ! A1    A(4,3,8)              118.4593         estimate D2E/DX2                !
 ! A2    A(2,4,3)              114.819          estimate D2E/DX2                !
 ! A3    A(2,4,5)              113.5018         estimate D2E/DX2                !
 ! A4    A(3,4,5)              117.0862         estimate D2E/DX2                !
 ! A5    A(4,5,6)              116.7454         estimate D2E/DX2                !
 ! A6    A(4,5,15)             120.2273         estimate D2E/DX2                !
 ! A7    A(6,5,15)             120.2077         estimate D2E/DX2                !
 ! A8    A(5,6,7)              119.2613         estimate D2E/DX2                !
 ! A9    A(5,6,14)             118.639          estimate D2E/DX2                !
 ! A10   A(7,6,14)             121.9842         estimate D2E/DX2                !
 ! A11   A(6,7,8)              117.5734         estimate D2E/DX2                !
 ! A12   A(6,7,12)             125.0671         estimate D2E/DX2                !
 ! A13   A(8,7,12)             117.2065         estimate D2E/DX2                !
 ! A14   A(3,8,7)              118.1267         estimate D2E/DX2                !
 ! A15   A(3,8,9)              120.5802         estimate D2E/DX2                !
 ! A16   A(7,8,9)              120.6793         estimate D2E/DX2                !
 ! A17   A(8,9,10)             119.0737         estimate D2E/DX2                !
 ! A18   A(8,9,16)             121.1755         estimate D2E/DX2                !
 ! A19   A(10,9,16)            119.5073         estimate D2E/DX2                !
 ! A20   A(9,10,11)            119.7751         estimate D2E/DX2                !
 ! A21   A(9,10,17)            120.0021         estimate D2E/DX2                !
 ! A22   A(11,10,17)           120.0603         estimate D2E/DX2                !
 ! A23   A(10,11,12)           120.0241         estimate D2E/DX2                !
 ! A24   A(10,11,18)           120.0756         estimate D2E/DX2                !
 ! A25   A(12,11,18)           119.8999         estimate D2E/DX2                !
 ! A26   A(7,12,11)            120.528          estimate D2E/DX2                !
 ! A27   A(7,12,19)            120.3523         estimate D2E/DX2                !
 ! A28   A(11,12,19)           118.7621         estimate D2E/DX2                !
 ! A29   L(1,2,4,18,-1)        170.8896         estimate D2E/DX2                !
 ! A30   L(6,14,13,19,-1)      181.4847         estimate D2E/DX2                !
 ! A31   L(1,2,4,18,-2)        174.8338         estimate D2E/DX2                !
 ! A32   L(6,14,13,19,-2)      180.2284         estimate D2E/DX2                !
 ! D1    D(8,3,4,2)            103.7973         estimate D2E/DX2                !
 ! D2    D(8,3,4,5)            -33.0889         estimate D2E/DX2                !
 ! D3    D(4,3,8,7)              3.6992         estimate D2E/DX2                !
 ! D4    D(4,3,8,9)           -167.3802         estimate D2E/DX2                !
 ! D5    D(2,4,5,6)           -101.831          estimate D2E/DX2                !
 ! D6    D(2,4,5,15)            59.2001         estimate D2E/DX2                !
 ! D7    D(3,4,5,6)             35.6031         estimate D2E/DX2                !
 ! D8    D(3,4,5,15)          -163.3658         estimate D2E/DX2                !
 ! D9    D(4,5,6,7)             -9.3251         estimate D2E/DX2                !
 ! D10   D(4,5,6,14)           166.8482         estimate D2E/DX2                !
 ! D11   D(15,5,6,7)          -170.3601         estimate D2E/DX2                !
 ! D12   D(15,5,6,14)            5.8132         estimate D2E/DX2                !
 ! D13   D(5,6,7,8)            -19.4245         estimate D2E/DX2                !
 ! D14   D(5,6,7,12)           155.9402         estimate D2E/DX2                !
 ! D15   D(14,6,7,8)           164.5354         estimate D2E/DX2                !
 ! D16   D(14,6,7,12)          -20.0999         estimate D2E/DX2                !
 ! D17   D(6,7,8,3)             22.1867         estimate D2E/DX2                !
 ! D18   D(6,7,8,9)           -166.7431         estimate D2E/DX2                !
 ! D19   D(12,7,8,3)          -153.5482         estimate D2E/DX2                !
 ! D20   D(12,7,8,9)            17.522          estimate D2E/DX2                !
 ! D21   D(6,7,12,11)          178.8606         estimate D2E/DX2                !
 ! D22   D(6,7,12,19)           -8.0896         estimate D2E/DX2                !
 ! D23   D(8,7,12,11)           -5.7593         estimate D2E/DX2                !
 ! D24   D(8,7,12,19)          167.2906         estimate D2E/DX2                !
 ! D25   D(3,8,9,10)           155.1132         estimate D2E/DX2                !
 ! D26   D(3,8,9,16)           -19.1884         estimate D2E/DX2                !
 ! D27   D(7,8,9,10)           -15.7375         estimate D2E/DX2                !
 ! D28   D(7,8,9,16)           169.961          estimate D2E/DX2                !
 ! D29   D(8,9,10,11)            1.8193         estimate D2E/DX2                !
 ! D30   D(8,9,10,17)         -173.5513         estimate D2E/DX2                !
 ! D31   D(16,9,10,11)         176.2175         estimate D2E/DX2                !
 ! D32   D(16,9,10,17)           0.8469         estimate D2E/DX2                !
 ! D33   D(9,10,11,12)           9.7519         estimate D2E/DX2                !
 ! D34   D(9,10,11,18)        -170.0275         estimate D2E/DX2                !
 ! D35   D(17,10,11,12)       -174.8803         estimate D2E/DX2                !
 ! D36   D(17,10,11,18)          5.3404         estimate D2E/DX2                !
 ! D37   D(10,11,12,7)          -7.6855         estimate D2E/DX2                !
 ! D38   D(10,11,12,19)        179.1556         estimate D2E/DX2                !
 ! D39   D(18,11,12,7)         172.0942         estimate D2E/DX2                !
 ! D40   D(18,11,12,19)         -1.0647         estimate D2E/DX2                !
 --------------------------------------------------------------------------------
 Trust Radius=3.00D-01 FncErr=1.00D-07 GrdErr=1.00D-06
 Number of steps in this run=    102 maximum allowed number of steps=    114.
 GradGradGradGradGradGradGradGradGradGradGradGradGradGradGradGradGradGrad

                          Input orientation:                          
 ---------------------------------------------------------------------
 Center     Atomic      Atomic             Coordinates (Angstroms)
 Number     Number       Type             X           Y           Z
 ---------------------------------------------------------------------
      1          7           0        8.940670    3.939480   -0.486950
      2          6           0        7.944970    3.332180   -0.410480
      3          6           0        6.791940    1.330540   -1.060690
      4          6           0        6.848490    2.406630   -0.176210
      5          6           0        6.632500    2.131750    1.170700
      6          6           0        7.119090    0.915330    1.648920
      7          6           0        7.612680   -0.042020    0.729910
      8          6           0        7.219520    0.083500   -0.615860
      9          6           0        7.432130   -0.960000   -1.521300
     10          6           0        8.316600   -1.979350   -1.182660
     11          6           0        8.944360   -1.965860    0.060950
     12          6           0        8.539240   -1.055520    1.037670
     13          7           0        7.203820    0.560020    4.215020
     14          6           0        7.179290    0.709130    3.064440
     15          1           0        6.396200    2.937490    1.863400
     16          1           0        6.991730   -0.941020   -2.516300
     17          1           0        8.573640   -2.741080   -1.914000
     18          1           0        9.752510   -2.661640    0.270700
     19          1           0        9.034790   -1.072220    2.007470
 ---------------------------------------------------------------------
                    Distance matrix (angstroms):
                    1          2          3          4          5
     1  N    0.000000
     2  C    1.168794   0.000000
     3  C    3.428234   2.399753   0.000000
     4  C    2.612165   1.453889   1.394085   0.000000
     5  C    3.367988   2.379861   2.376228   1.391538   0.000000
     6  C    4.126206   3.280910   2.760691   2.372404   1.394683
     7  C    4.369971   3.577168   2.400788   2.720464   2.424938
     8  C    4.224637   3.335023   1.391333   2.393301   2.780597
     9  C    5.229768   4.463153   2.422515   3.672070   4.176744
    10  C    5.992164   5.380216   3.646209   4.733404   5.027488
    11  C    5.930704   5.412047   4.093561   4.854646   4.833906
    12  C    5.237904   4.658563   3.626218   4.039632   3.716456
    13  N    6.045322   5.443292   5.347566   4.776937   3.473417
    14  C    5.113706   4.420602   4.189617   3.673248   2.430860
    15  H    3.605892   2.779388   3.359941   2.155548   1.088526
    16  H    5.633463   4.858331   2.705310   4.086967   4.812996
    17  H    6.841130   6.288107   4.525559   5.700436   6.085053
    18  H    6.693871   6.297387   5.145394   5.858363   5.789737
    19  H    5.598940   5.141296   4.496358   4.653038   4.091040
                    6          7          8          9         10
     6  C    0.000000
     7  C    1.415885   0.000000
     8  C    2.414799   1.407632   0.000000
     9  C    3.696641   2.437874   1.397826   0.000000
    10  C    4.222683   2.811881   2.404204   1.391416   0.000000
    11  C    3.762249   2.433524   2.762792   2.408757   1.393137
    12  C    2.504936   1.407271   2.402746   2.789829   2.415139
    13  N    2.591967   3.560282   4.854351   5.938683   6.068083
    14  C    1.431726   2.490398   3.733315   4.886608   5.153567
    15  H    2.158171   3.412053   3.869088   5.264957   6.094402
    16  H    4.561942   3.425151   2.170991   1.088273   2.147558
    17  H    5.308432   3.898542   3.390732   2.151628   1.086812
    18  H    4.650710   3.413525   3.838987   3.389839   2.153976
    19  H    2.783670   2.171605   3.393045   3.877284   3.393466
                   11         12         13         14         15
    11  C    0.000000
    12  C    1.395286   0.000000
    13  N    5.163898   3.806425   0.000000
    14  C    4.392265   3.011852   1.160461   0.000000
    15  H    5.812468   4.606363   3.440164   2.649776   0.000000
    16  H    3.391943   3.877963   6.899911   5.822614   5.880414
    17  H    2.153794   3.399213   7.094967   6.215547   7.159340
    18  H    1.086835   2.154040   5.694960   5.078241   6.719506
    19  H    2.143761   1.089202   3.299990   2.780876   4.802154
                   16         17         18         19
    16  H    0.000000
    17  H    2.470915   0.000000
    18  H    4.283668   2.483739   0.000000
    19  H    4.965461   4.286686   2.461249   0.000000
 Stoichiometry    C12H5N2(1-)
 Framework group  C1[X(C12H5N2)]
 Deg. of freedom    51
 Full point group                 C1      NOp   1
 Largest Abelian subgroup         C1      NOp   1
 Largest concise Abelian subgroup C1      NOp   1
                         Standard orientation:                         
 ---------------------------------------------------------------------
 Center     Atomic      Atomic             Coordinates (Angstroms)
 Number     Number       Type             X           Y           Z
 ---------------------------------------------------------------------
      1          7           0        2.583299   -2.091917    1.583404
      2          6           0        2.208024   -1.743702    0.532693
      3          6           0        0.327731   -1.604512   -0.951874
      4          6           0        1.602402   -1.133954   -0.640006
      5          6           0        1.807584    0.240075   -0.719512
      6          6           0        0.740917    1.056690   -0.344673
      7          6           0       -0.526407    0.472912   -0.104207
      8          6           0       -0.768141   -0.804704   -0.643363
      9          6           0       -2.064316   -1.326019   -0.688942
     10          6           0       -3.058048   -0.735946    0.085880
     11          6           0       -2.758282    0.381853    0.861443
     12          6           0       -1.531517    1.028842    0.708878
     13          7           0        1.205511    3.581295    0.014235
     14          6           0        0.985405    2.451693   -0.134834
     15          1           0        2.818537    0.641980   -0.756025
     16          1           0       -2.286770   -2.234885   -1.244652
     17          1           0       -4.043605   -1.190344    0.143830
     18          1           0       -3.477752    0.749129    1.588549
     19          1           0       -1.324180    1.909108    1.315923
 ---------------------------------------------------------------------
 Rotational constants (GHZ):      0.8905455      0.7291902      0.4713912
 Standard basis: STO-3G (5D, 7F)
 There are    75 symmetry adapted cartesian basis functions of A   symmetry.
 There are    75 symmetry adapted basis functions of A   symmetry.
    75 basis functions,   225 primitive gaussians,    75 cartesian basis functions
    46 alpha electrons       46 beta electrons
       nuclear repulsion energy       723.1743100730 Hartrees.
 NAtoms=   19 NActive=   19 NUniq=   19 SFac= 1.00D+00 NAtFMM=   60 NAOKFM=F Big=F
 Integral buffers will be    131072 words long.
 Raffenetti 2 integral format.
 Two-electron integral symmetry is turned on.
 One-electron integrals computed using PRISM.
 NBasis=    75 RedAO= T EigKep=  1.55D-01  NBF=    75
 NBsUse=    75 1.00D-06 EigRej= -1.00D+00 NBFU=    75
 ExpMin= 1.69D-01 ExpMax= 9.91D+01 ExpMxC= 9.91D+01 IAcc=1 IRadAn=         1 AccDes= 0.00D+00
 Harris functional with IExCor=  402 and IRadAn=       1 diagonalized for initial guess.
 HarFok:  IExCor=  402 AccDes= 0.00D+00 IRadAn=         1 IDoV= 1 UseB2=F ITyADJ=14
 ICtDFT=  3500011 ScaDFX=  1.000000  1.000000  1.000000  1.000000
 FoFCou: FMM=F IPFlag=           0 FMFlag=      100000 FMFlg1=           0
         NFxFlg=           0 DoJE=T BraDBF=F KetDBF=T FulRan=T
         wScrn=  0.000000 ICntrl=     500 IOpCl=  0 I1Cent=   200000004 NGrid=           0
         NMat0=    1 NMatS0=      1 NMatT0=    0 NMatD0=    1 NMtDS0=    0 NMtDT0=    0
 Petite list used in FoFCou.
 Keep R1 ints in memory in canonical form, NReq=4993994.
 Requested convergence on RMS density matrix=1.00D-08 within 128 cycles.
 Requested convergence on MAX density matrix=1.00D-06.
 Requested convergence on             energy=1.00D-06.
 No special actions if energy rises.
 Integral accuracy reduced to 1.0D-05 until final iterations.
 Initial convergence to 1.0D-05 achieved.  Increase integral accuracy.
 SCF Done:  E(RB3LYP) =  -562.434705519     A.U. after   20 cycles
            NFock= 20  Conv=0.55D-08     -V/T= 2.0126

 **********************************************************************

            Population analysis using the SCF density.

 **********************************************************************

 Orbital symmetries:
       Occupied  (A) (A) (A) (A) (A) (A) (A) (A) (A) (A) (A) (A)
                 (A) (A) (A) (A) (A) (A) (A) (A) (A) (A) (A) (A)
                 (A) (A) (A) (A) (A) (A) (A) (A) (A) (A) (A) (A)
                 (A) (A) (A) (A) (A) (A) (A) (A) (A) (A)
       Virtual   (A) (A) (A) (A) (A) (A) (A) (A) (A) (A) (A) (A)
                 (A) (A) (A) (A) (A) (A) (A) (A) (A) (A) (A) (A)
                 (A) (A) (A) (A) (A)
 The electronic state is 1-A.
 Alpha  occ. eigenvalues --  -13.96602 -13.93467  -9.87748  -9.86984  -9.85617
 Alpha  occ. eigenvalues --   -9.85567  -9.85458  -9.85345  -9.85088  -9.84973
 Alpha  occ. eigenvalues --   -9.83954  -9.83826  -9.83693  -9.72640  -0.72355
 Alpha  occ. eigenvalues --   -0.69621  -0.67688  -0.63054  -0.57390  -0.55113
 Alpha  occ. eigenvalues --   -0.52833  -0.43686  -0.42084  -0.40580  -0.35742
 Alpha  occ. eigenvalues --   -0.32486  -0.30114  -0.26536  -0.24940  -0.23841
 Alpha  occ. eigenvalues --   -0.21796  -0.21578  -0.20170  -0.16450  -0.16152
 Alpha  occ. eigenvalues --   -0.14770  -0.13968  -0.13052  -0.12490  -0.10961
 Alpha  occ. eigenvalues --   -0.09880  -0.08310  -0.06037  -0.01875   0.01480
 Alpha  occ. eigenvalues --    0.09273
 Alpha virt. eigenvalues --    0.18582   0.21639   0.25220   0.29167   0.30103
 Alpha virt. eigenvalues --    0.32998   0.34990   0.37510   0.42492   0.49706
 Alpha virt. eigenvalues --    0.50499   0.55045   0.58163   0.59370   0.60938
 Alpha virt. eigenvalues --    0.61698   0.65258   0.67127   0.72022   0.73731
 Alpha virt. eigenvalues --    0.74859   0.79300   0.82619   0.85943   0.87801
 Alpha virt. eigenvalues --    0.96833   0.99815   1.15444   1.16809
          Condensed to atoms (all electrons):
               1          2          3          4          5          6
     1  N    6.620735   0.678532  -0.000364  -0.012167  -0.000607   0.000016
     2  C    0.678532   4.940679  -0.037044   0.411265  -0.043409  -0.000058
     3  C   -0.000364  -0.037044   5.329586   0.474790  -0.026168  -0.015036
     4  C   -0.012167   0.411265   0.474790   4.863757   0.460530  -0.036348
     5  C   -0.000607  -0.043409  -0.026168   0.460530   4.890807   0.500872
     6  C    0.000016  -0.000058  -0.015036  -0.036348   0.500872   4.789610
     7  C    0.000040  -0.000056  -0.030133  -0.018344  -0.033458   0.478474
     8  C   -0.000021   0.001070   0.473006  -0.033823  -0.009925  -0.034972
     9  C    0.000000   0.000001  -0.039945   0.001440   0.000022   0.000916
    10  C    0.000000   0.000000   0.000812  -0.000019  -0.000001   0.000040
    11  C    0.000000   0.000000   0.000045   0.000008  -0.000007   0.000854
    12  C    0.000000   0.000015   0.001136   0.000125   0.000721  -0.028269
    13  N    0.000000   0.000000   0.000000  -0.000001  -0.000262  -0.011846
    14  C    0.000000  -0.000017   0.000086   0.001078  -0.031914   0.432239
    15  H    0.000042  -0.001981   0.001572  -0.028079   0.386116  -0.027049
    16  H    0.000000  -0.000004  -0.002093   0.000020  -0.000001  -0.000017
    17  H    0.000000   0.000000  -0.000026   0.000000   0.000000   0.000001
    18  H    0.000000   0.000000   0.000001   0.000000   0.000000  -0.000018
    19  H    0.000000  -0.000001  -0.000033  -0.000005   0.000031  -0.003536
               7          8          9         10         11         12
     1  N    0.000040  -0.000021   0.000000   0.000000   0.000000   0.000000
     2  C   -0.000056   0.001070   0.000001   0.000000   0.000000   0.000015
     3  C   -0.030133   0.473006  -0.039945   0.000812   0.000045   0.001136
     4  C   -0.018344  -0.033823   0.001440  -0.000019   0.000008   0.000125
     5  C   -0.033458  -0.009925   0.000022  -0.000001  -0.000007   0.000721
     6  C    0.478474  -0.034972   0.000916   0.000040   0.000854  -0.028269
     7  C    4.811605   0.454990  -0.033703  -0.009889  -0.029444   0.478987
     8  C    0.454990   4.822064   0.477323  -0.032249  -0.012534  -0.030194
     9  C   -0.033703   0.477323   4.828365   0.521413  -0.030750  -0.011628
    10  C   -0.009889  -0.032249   0.521413   4.840335   0.486014  -0.031003
    11  C   -0.029444  -0.012534  -0.030750   0.486014   4.830073   0.522520
    12  C    0.478987  -0.030194  -0.011628  -0.031003   0.522520   4.831667
    13  N   -0.000064  -0.000001   0.000000   0.000000   0.000000  -0.000042
    14  C   -0.027747   0.000886  -0.000007   0.000000   0.000010  -0.003407
    15  H    0.001297   0.000079   0.000002   0.000000   0.000000  -0.000018
    16  H    0.001484  -0.024455   0.388592  -0.026909   0.001514   0.000029
    17  H    0.000028   0.001532  -0.026383   0.390050  -0.026834   0.001513
    18  H    0.001443   0.000054   0.001516  -0.026632   0.390464  -0.026134
    19  H   -0.025509   0.001498   0.000020   0.001523  -0.027385   0.387337
              13         14         15         16         17         18
     1  N    0.000000   0.000000   0.000042   0.000000   0.000000   0.000000
     2  C    0.000000  -0.000017  -0.001981  -0.000004   0.000000   0.000000
     3  C    0.000000   0.000086   0.001572  -0.002093  -0.000026   0.000001
     4  C   -0.000001   0.001078  -0.028079   0.000020   0.000000   0.000000
     5  C   -0.000262  -0.031914   0.386116  -0.000001   0.000000   0.000000
     6  C   -0.011846   0.432239  -0.027049  -0.000017   0.000001  -0.000018
     7  C   -0.000064  -0.027747   0.001297   0.001484   0.000028   0.001443
     8  C   -0.000001   0.000886   0.000079  -0.024455   0.001532   0.000054
     9  C    0.000000  -0.000007   0.000002   0.388592  -0.026383   0.001516
    10  C    0.000000   0.000000   0.000000  -0.026909   0.390050  -0.026632
    11  C    0.000000   0.000010   0.000000   0.001514  -0.026834   0.390464
    12  C   -0.000042  -0.003407  -0.000018   0.000029   0.001513  -0.026134
    13  N    6.596721   0.685374   0.000053   0.000000   0.000000   0.000000
    14  C    0.685374   4.891326  -0.003931   0.000000   0.000000   0.000000
    15  H    0.000053  -0.003931   0.620220   0.000000   0.000000   0.000000
    16  H    0.000000   0.000000   0.000000   0.604255  -0.003955  -0.000039
    17  H    0.000000   0.000000   0.000000  -0.003955   0.622279  -0.003820
    18  H    0.000000   0.000000   0.000000  -0.000039  -0.003820   0.617568
    19  H   -0.000024   0.000863  -0.000002   0.000003  -0.000039  -0.004027
              19
     1  N    0.000000
     2  C   -0.000001
     3  C   -0.000033
     4  C   -0.000005
     5  C    0.000031
     6  C   -0.003536
     7  C   -0.025509
     8  C    0.001498
     9  C    0.000020
    10  C    0.001523
    11  C   -0.027385
    12  C    0.387337
    13  N   -0.000024
    14  C    0.000863
    15  H   -0.000002
    16  H    0.000003
    17  H   -0.000039
    18  H   -0.004027
    19  H    0.611322
 Mulliken charges:
               1
     1  N   -0.286206
     2  C    0.051006
     3  C   -0.130192
     4  C   -0.084227
     5  C   -0.093348
     6  C   -0.045872
     7  C   -0.020001
     8  C   -0.054327
     9  C   -0.077193
    10  C   -0.113486
    11  C   -0.104548
    12  C   -0.093354
    13  N   -0.269909
    14  C    0.055160
    15  H    0.051679
    16  H    0.061576
    17  H    0.045654
    18  H    0.049624
    19  H    0.057964
 Sum of Mulliken charges =  -1.00000
 Mulliken charges with hydrogens summed into heavy atoms:
               1
     1  N   -0.286206
     2  C    0.051006
     3  C   -0.130192
     4  C   -0.084227
     5  C   -0.041669
     6  C   -0.045872
     7  C   -0.020001
     8  C   -0.054327
     9  C   -0.015617
    10  C   -0.067832
    11  C   -0.054924
    12  C   -0.035390
    13  N   -0.269909
    14  C    0.055160
 Electronic spatial extent (au):  <R**2>=           2394.2882
 Charge=             -1.0000 electrons
 Dipole moment (field-independent basis, Debye):
    X=             -3.6276    Y=              0.6128    Z=             -1.1650  Tot=              3.8591
 Quadrupole moment (field-independent basis, Debye-Ang):
   XX=            -89.2707   YY=           -104.5469   ZZ=            -79.9103
   XY=              3.0187   XZ=             -6.5419   YZ=              3.5590
 Traceless Quadrupole moment (field-independent basis, Debye-Ang):
   XX=              1.9720   YY=            -13.3043   ZZ=             11.3323
   XY=              3.0187   XZ=             -6.5419   YZ=              3.5590
 Octapole moment (field-independent basis, Debye-Ang**2):
  XXX=            -11.8338  YYY=            -50.3454  ZZZ=             -4.3735  XYY=            -44.0245
  XXY=             15.6305  XXZ=            -16.1625  XZZ=            -13.0709  YZZ=             16.3360
  YYZ=             -6.9881  XYZ=             12.0038
 Hexadecapole moment (field-independent basis, Debye-Ang**3):
 XXXX=          -1658.6478 YYYY=          -1554.6863 ZZZZ=           -314.2559 XXXY=             62.4038
 XXXZ=            -53.5601 YYYX=            -59.6312 YYYZ=              7.2193 ZZZX=            -19.6897
 ZZZY=             16.4973 XXYY=           -538.7748 XXZZ=           -352.1211 YYZZ=           -272.0380
 XXYZ=             44.1579 YYXZ=            -30.8397 ZZXY=             31.6171
 N-N= 7.231743100730D+02 E-N=-2.769225632730D+03  KE= 5.554539802014D+02
 Calling FoFJK, ICntrl=      2127 FMM=F ISym2X=0 I1Cent= 0 IOpClX= 0 NMat=1 NMatS=1 NMatT=0.
 ***** Axes restored to original set *****
 -------------------------------------------------------------------
 Center     Atomic                   Forces (Hartrees/Bohr)
 Number     Number              X              Y              Z
 -------------------------------------------------------------------
      1        7           0.070643246    0.045186356   -0.006559677
      2        6          -0.079016080   -0.013548309   -0.008503506
      3        6           0.005937748    0.032056432   -0.043716758
      4        6           0.014231883   -0.004479693   -0.030007688
      5        6          -0.001749106    0.012177688    0.042779871
      6        6          -0.010285564    0.002490954    0.014957565
      7        6           0.019138645   -0.019112594    0.026983137
      8        6          -0.045500751    0.014487004   -0.014597733
      9        6           0.015910687   -0.043430119   -0.012263384
     10        6          -0.015930040    0.003699842   -0.032498682
     11        6           0.005389891    0.005034006    0.034398045
     12        6           0.023169652   -0.019593952    0.001607654
     13        7           0.002848988   -0.013643401    0.104960674
     14        6          -0.001766852    0.007243997   -0.086310420
     15        1          -0.006938126    0.002112158    0.009471758
     16        1          -0.003330044    0.004430902   -0.007369268
     17        1           0.002108803   -0.006496036   -0.005466326
     18        1           0.004168424   -0.007807999    0.003311057
     19        1           0.000968597   -0.000807235    0.008823682
 -------------------------------------------------------------------
 Cartesian Forces:  Max     0.104960674 RMS     0.029291327

 GradGradGradGradGradGradGradGradGradGradGradGradGradGradGradGradGradGrad
 Berny optimization.
 FormGI is forming the generalized inverse of G from B-inverse, IUseBI=4.
 Internal  Forces:  Max     0.105879396 RMS     0.021334758
 Search for a local minimum.
 Step number   1 out of a maximum of  102
 All quantities printed in internal units (Hartrees-Bohrs-Radians)
 Mixed Optimization -- RFO/linear search
 Second derivative matrix not updated -- first step.
 ITU=  0
     Eigenvalues ---    0.01376   0.01376   0.01979   0.02044   0.02067
     Eigenvalues ---    0.02116   0.02138   0.02165   0.02167   0.02192
     Eigenvalues ---    0.02199   0.02206   0.02310   0.02348   0.02509
     Eigenvalues ---    0.04860   0.04860   0.05382   0.15072   0.15887
     Eigenvalues ---    0.15911   0.15959   0.16000   0.20906   0.21858
     Eigenvalues ---    0.22279   0.22623   0.23785   0.24160   0.24807
     Eigenvalues ---    0.24960   0.34905   0.34984   0.35013   0.35181
     Eigenvalues ---    0.35184   0.37740   0.38592   0.40742   0.41126
     Eigenvalues ---    0.41538   0.43277   0.44520   0.45562   0.45963
     Eigenvalues ---    0.46143   0.46356   0.46813   0.46882   1.22207
     Eigenvalues ---    1.27492
 RFO step:  Lambda=-8.23098240D-02 EMin= 1.37590574D-02
 Linear search not attempted -- first point.
 Maximum step size (   0.300) exceeded in Quadratic search.
    -- Step size scaled by   0.939
 Iteration  1 RMS(Cart)=  0.15536379 RMS(Int)=  0.01321123
 Iteration  2 RMS(Cart)=  0.03105066 RMS(Int)=  0.00149045
 Iteration  3 RMS(Cart)=  0.00095999 RMS(Int)=  0.00139403
 Iteration  4 RMS(Cart)=  0.00000208 RMS(Int)=  0.00139403
 Iteration  5 RMS(Cart)=  0.00000001 RMS(Int)=  0.00139403
 Variable       Old X    -DE/DX   Delta X   Delta X   Delta X     New X
                                 (Linear)    (Quad)   (Total)
    R1        2.20870   0.08409   0.00000   0.06053   0.06053   2.26923
    R2        2.74745   0.01626   0.00000   0.03320   0.03320   2.78066
    R3        2.63444   0.02430   0.00000   0.04040   0.04064   2.67508
    R4        2.62924   0.04685   0.00000   0.08121   0.08091   2.71015
    R5        2.62963   0.06896   0.00000   0.11623   0.11711   2.74673
    R6        2.63557   0.02943   0.00000   0.04857   0.04882   2.68439
    R7        2.05702   0.00910   0.00000   0.01976   0.01976   2.07678
    R8        2.67563   0.03163   0.00000   0.05751   0.05698   2.73261
    R9        2.70557   0.01940   0.00000   0.03720   0.03720   2.74277
   R10        2.66004   0.06116   0.00000   0.11537   0.11509   2.77513
   R11        2.65936   0.02934   0.00000   0.05310   0.05305   2.71241
   R12        2.64151   0.04588   0.00000   0.08197   0.08221   2.72371
   R13        2.62940   0.00470   0.00000   0.00717   0.00721   2.63660
   R14        2.05654   0.00816   0.00000   0.01772   0.01772   2.07426
   R15        2.63265   0.04264   0.00000   0.06950   0.06930   2.70195
   R16        2.05378   0.00873   0.00000   0.01888   0.01888   2.07266
   R17        2.63671   0.00051   0.00000  -0.00166  -0.00193   2.63478
   R18        2.05382   0.00874   0.00000   0.01889   0.01889   2.07272
   R19        2.05829   0.00831   0.00000   0.01809   0.01809   2.07638
   R20        2.19295   0.10588   0.00000   0.07325   0.07325   2.26620
    A1        2.06751  -0.00347   0.00000  -0.00636  -0.00576   2.06175
    A2        2.00397   0.00558   0.00000   0.04588   0.03740   2.04137
    A3        1.98098   0.01663   0.00000   0.08321   0.07678   2.05776
    A4        2.04354  -0.00448   0.00000   0.00772   0.00422   2.04776
    A5        2.03759   0.00955   0.00000   0.03159   0.03169   2.06928
    A6        2.09836   0.00010   0.00000   0.01182   0.00857   2.10694
    A7        2.09802  -0.00574   0.00000  -0.00922  -0.01219   2.08584
    A8        2.08150   0.00021   0.00000  -0.00051  -0.00045   2.08106
    A9        2.07064   0.00505   0.00000   0.01583   0.01511   2.08575
   A10        2.12903  -0.00487   0.00000  -0.01199  -0.01270   2.11633
   A11        2.05204  -0.00655   0.00000  -0.01489  -0.01581   2.03624
   A12        2.18283   0.00073   0.00000  -0.00632  -0.00607   2.17676
   A13        2.04564   0.00602   0.00000   0.02296   0.02336   2.06900
   A14        2.06170   0.00846   0.00000   0.02777   0.02734   2.08904
   A15        2.10452   0.01129   0.00000   0.02389   0.02398   2.12851
   A16        2.10625  -0.01996   0.00000  -0.05236  -0.05201   2.05424
   A17        2.07823   0.00600   0.00000   0.02463   0.02481   2.10304
   A18        2.11491  -0.00703   0.00000  -0.02723  -0.02731   2.08760
   A19        2.08580   0.00108   0.00000   0.00360   0.00346   2.08925
   A20        2.09047   0.00389   0.00000   0.00739   0.00709   2.09756
   A21        2.09443  -0.00140   0.00000  -0.00089  -0.00077   2.09366
   A22        2.09545  -0.00232   0.00000  -0.00521  -0.00517   2.09028
   A23        2.09482   0.00555   0.00000   0.01033   0.00986   2.10467
   A24        2.09572  -0.00232   0.00000  -0.00342  -0.00318   2.09253
   A25        2.09265  -0.00322   0.00000  -0.00691  -0.00667   2.08597
   A26        2.10361  -0.00085   0.00000  -0.00273  -0.00338   2.10023
   A27        2.10054  -0.00075   0.00000  -0.00193  -0.00192   2.09862
   A28        2.07279   0.00212   0.00000   0.00860   0.00860   2.08139
   A29        2.98259   0.00416   0.00000   0.04069   0.04069   3.02327
   A30        3.16751  -0.00100   0.00000  -0.00715  -0.00715   3.16036
   A31        3.05142   0.00190   0.00000   0.01854   0.01854   3.06996
   A32        3.14558  -0.00086   0.00000  -0.00616  -0.00616   3.13942
    D1        1.81160   0.03987   0.00000   0.30021   0.29886   2.11047
    D2       -0.57751   0.01081   0.00000   0.09561   0.09387  -0.48364
    D3        0.06456  -0.00302   0.00000  -0.05402  -0.05416   0.01040
    D4       -2.92134   0.00031   0.00000  -0.04415  -0.04443  -2.96577
    D5       -1.77729  -0.02719   0.00000  -0.24031  -0.24337  -2.02066
    D6        1.03324  -0.01552   0.00000  -0.13078  -0.13278   0.90045
    D7        0.62139  -0.00295   0.00000  -0.05335  -0.05316   0.56823
    D8       -2.85127   0.00871   0.00000   0.05619   0.05743  -2.79384
    D9       -0.16275   0.00074   0.00000   0.00267   0.00099  -0.16176
   D10        2.91205   0.00694   0.00000   0.05739   0.05676   2.96881
   D11       -2.97334  -0.01209   0.00000  -0.11105  -0.11225  -3.08560
   D12        0.10146  -0.00589   0.00000  -0.05632  -0.05649   0.04497
   D13       -0.33902   0.00475   0.00000   0.03623   0.03593  -0.30309
   D14        2.72167   0.00808   0.00000   0.06370   0.06347   2.78514
   D15        2.87168  -0.00207   0.00000  -0.02152  -0.02195   2.84973
   D16       -0.35081   0.00126   0.00000   0.00595   0.00558  -0.34522
   D17        0.38723   0.00041   0.00000  -0.00217  -0.00180   0.38544
   D18       -2.91022  -0.00002   0.00000  -0.00494  -0.00441  -2.91462
   D19       -2.67992  -0.00246   0.00000  -0.02623  -0.02631  -2.70623
   D20        0.30582  -0.00289   0.00000  -0.02901  -0.02892   0.27690
   D21        3.12171  -0.00527   0.00000  -0.03467  -0.03452   3.08719
   D22       -0.14119  -0.00010   0.00000   0.00400   0.00377  -0.13742
   D23       -0.10052  -0.00248   0.00000  -0.00887  -0.00817  -0.10869
   D24        2.91977   0.00269   0.00000   0.02981   0.03012   2.94989
   D25        2.70724   0.00317   0.00000   0.03063   0.03051   2.73775
   D26       -0.33490   0.00251   0.00000   0.01871   0.01845  -0.31645
   D27       -0.27467   0.00395   0.00000   0.03336   0.03310  -0.24157
   D28        2.96638   0.00330   0.00000   0.02144   0.02104   2.98742
   D29        0.03175   0.00212   0.00000   0.00338   0.00262   0.03437
   D30       -3.02904  -0.00014   0.00000  -0.01486  -0.01554  -3.04458
   D31        3.07557   0.00229   0.00000   0.01328   0.01291   3.08849
   D32        0.01478   0.00003   0.00000  -0.00496  -0.00525   0.00953
   D33        0.17020  -0.00141   0.00000  -0.02538  -0.02594   0.14426
   D34       -2.96754  -0.00258   0.00000  -0.02566  -0.02583  -2.99336
   D35       -3.05224   0.00089   0.00000  -0.00693  -0.00761  -3.05985
   D36        0.09321  -0.00028   0.00000  -0.00720  -0.00750   0.08571
   D37       -0.13414   0.00304   0.00000   0.03074   0.03081  -0.10332
   D38        3.12685  -0.00186   0.00000  -0.00662  -0.00639   3.12047
   D39        3.00361   0.00421   0.00000   0.03102   0.03071   3.03432
   D40       -0.01858  -0.00069   0.00000  -0.00634  -0.00649  -0.02508
         Item               Value     Threshold  Converged?
 Maximum Force            0.105879     0.000450     NO 
 RMS     Force            0.021335     0.000300     NO 
 Maximum Displacement     1.014914     0.001800     NO 
 RMS     Displacement     0.180340     0.001200     NO 
 Predicted change in Energy=-5.381351D-02
 GradGradGradGradGradGradGradGradGradGradGradGradGradGradGradGradGradGrad

                          Input orientation:                          
 ---------------------------------------------------------------------
 Center     Atomic      Atomic             Coordinates (Angstroms)
 Number     Number       Type             X           Y           Z
 ---------------------------------------------------------------------
      1          7           0        8.637741    4.476549   -0.705340
      2          6           0        7.809774    3.627763   -0.515578
      3          6           0        6.910722    1.417329   -1.118598
      4          6           0        6.936301    2.488309   -0.193261
      5          6           0        6.730910    2.163967    1.208631
      6          6           0        7.198478    0.912641    1.691777
      7          6           0        7.675412   -0.074827    0.749196
      8          6           0        7.289573    0.114092   -0.655094
      9          6           0        7.499762   -0.986631   -1.561545
     10          6           0        8.302276   -2.065995   -1.190587
     11          6           0        8.891117   -2.109815    0.111605
     12          6           0        8.538465   -1.172471    1.081654
     13          7           0        7.191848    0.458432    4.303077
     14          6           0        7.201917    0.653888    3.119934
     15          1           0        6.417193    2.937335    1.923648
     16          1           0        7.092572   -0.936173   -2.579624
     17          1           0        8.530645   -2.854259   -1.918229
     18          1           0        9.629906   -2.884149    0.351691
     19          1           0        8.989559   -1.238646    2.081372
 ---------------------------------------------------------------------
                    Distance matrix (angstroms):
                    1          2          3          4          5
     1  N    0.000000
     2  C    1.200824   0.000000
     3  C    3.537260   2.461289   0.000000
     4  C    2.666500   1.471460   1.415592   0.000000
     5  C    3.556308   2.505901   2.450672   1.453508   0.000000
     6  C    4.529800   3.552179   2.869794   2.470796   1.420516
     7  C    4.874092   3.914955   2.509967   2.829165   2.472926
     8  C    4.566302   3.554708   1.434151   2.444381   2.826227
     9  C    5.645744   4.741602   2.514398   3.776891   4.265123
    10  C    6.569085   5.754743   3.751686   4.858213   5.110578
    11  C    6.641671   5.872177   4.228015   5.005696   4.912756
    12  C    5.925760   5.111201   3.767986   4.194478   3.796734
    13  N    6.581802   5.800510   5.512991   4.939915   3.563272
    14  C    5.595270   4.736070   4.316571   3.796434   2.480981
    15  H    3.769827   2.892368   3.436459   2.225399   1.098984
    16  H    5.932795   5.060057   2.776084   4.176869   4.908416
    17  H    7.431239   6.671108   4.637890   5.836136   6.180525
    18  H    7.502105   6.816893   5.297021   6.034550   5.884046
    19  H    6.368124   5.640743   4.649255   4.824938   4.176236
                    6          7          8          9         10
     6  C    0.000000
     7  C    1.446035   0.000000
     8  C    2.480681   1.468534   0.000000
     9  C    3.779168   2.490334   1.441327   0.000000
    10  C    4.289366   2.849642   2.462742   1.395229   0.000000
    11  C    3.807521   2.454717   2.845792   2.448845   1.429810
    12  C    2.552549   1.435343   2.496251   2.846040   2.453008
    13  N    2.650517   3.626054   4.971074   6.047876   6.147041
    14  C    1.451413   2.525000   3.814433   4.969533   5.214321
    15  H    2.182557   3.469232   3.921945   5.358734   6.187512
    16  H    4.655555   3.487501   2.201291   1.097650   2.160858
    17  H    5.384825   3.946114   3.456425   2.162863   1.096803
    18  H    4.703540   3.445337   3.934492   3.434904   2.193308
    19  H    2.826269   2.203668   3.494009   3.943837   3.444209
                   11         12         13         14         15
    11  C    0.000000
    12  C    1.394265   0.000000
    13  N    5.201139   3.853672   0.000000
    14  C    4.420577   3.045740   1.199221   0.000000
    15  H    5.905720   4.700984   3.522319   2.694628   0.000000
    16  H    3.443096   3.943526   7.023272   5.918211   5.978266
    17  H    2.191885   3.439152   7.174325   6.281377   7.264245
    18  H    1.096834   2.157298   5.721051   5.106467   6.832441
    19  H    2.156063   1.098773   3.323826   2.802849   4.907216
                   16         17         18         19
    16  H    0.000000
    17  H    2.486875   0.000000
    18  H    4.338811   2.522262   0.000000
    19  H    5.041323   4.337927   2.471744   0.000000
 Stoichiometry    C12H5N2(1-)
 Framework group  C1[X(C12H5N2)]
 Deg. of freedom    51
 Full point group                 C1      NOp   1
 Largest Abelian subgroup         C1      NOp   1
 Largest concise Abelian subgroup C1      NOp   1
                         Standard orientation:                         
 ---------------------------------------------------------------------
 Center     Atomic      Atomic             Coordinates (Angstroms)
 Number     Number       Type             X           Y           Z
 ---------------------------------------------------------------------
      1          7           0        3.574312   -1.548513    1.321154
      2          6           0        2.862225   -1.203650    0.417838
      3          6           0        0.766707   -1.533152   -0.830432
      4          6           0        1.877127   -0.700330   -0.552444
      5          6           0        1.669156    0.736259   -0.627570
      6          6           0        0.396047    1.257605   -0.273655
      7          6           0       -0.702959    0.345229   -0.048322
      8          6           0       -0.546512   -1.017422   -0.573010
      9          6           0       -1.718088   -1.855615   -0.620653
     10          6           0       -2.874670   -1.495882    0.071860
     11          6           0       -2.922132   -0.268071    0.803013
     12          6           0       -1.888361    0.661437    0.696692
     13          7           0        0.104422    3.880171   -0.023973
     14          6           0        0.225347    2.691919   -0.131508
     15          1           0        2.520146    1.421151   -0.748007
     16          1           0       -1.672388   -2.822710   -1.137830
     17          1           0       -3.729234   -2.182620    0.104836
     18          1           0       -3.776169   -0.054016    1.457111
     19          1           0       -1.956820    1.606626    1.252778
 ---------------------------------------------------------------------
 Rotational constants (GHZ):      0.8640414      0.6596362      0.4186791
 Standard basis: STO-3G (5D, 7F)
 There are    75 symmetry adapted cartesian basis functions of A   symmetry.
 There are    75 symmetry adapted basis functions of A   symmetry.
    75 basis functions,   225 primitive gaussians,    75 cartesian basis functions
    46 alpha electrons       46 beta electrons
       nuclear repulsion energy       701.6220505850 Hartrees.
 NAtoms=   19 NActive=   19 NUniq=   19 SFac= 1.00D+00 NAtFMM=   60 NAOKFM=F Big=F
 Integral buffers will be    131072 words long.
 Raffenetti 2 integral format.
 Two-electron integral symmetry is turned on.
 One-electron integrals computed using PRISM.
 NBasis=    75 RedAO= T EigKep=  1.75D-01  NBF=    75
 NBsUse=    75 1.00D-06 EigRej= -1.00D+00 NBFU=    75
 Initial guess from the checkpoint file:  "/tmp/bnp.472654.sequoia/Gau-26513.chk"
 B after Tr=     0.000000    0.000000    0.000000
         Rot=    0.990942   -0.004613   -0.011422   -0.133726 Ang= -15.44 deg.
 ExpMin= 1.69D-01 ExpMax= 9.91D+01 ExpMxC= 9.91D+01 IAcc=1 IRadAn=         1 AccDes= 0.00D+00
 Harris functional with IExCor=  402 and IRadAn=       1 diagonalized for initial guess.
 HarFok:  IExCor=  402 AccDes= 0.00D+00 IRadAn=         1 IDoV= 1 UseB2=F ITyADJ=14
 ICtDFT=  3500011 ScaDFX=  1.000000  1.000000  1.000000  1.000000
 FoFCou: FMM=F IPFlag=           0 FMFlag=      100000 FMFlg1=           0
         NFxFlg=           0 DoJE=T BraDBF=F KetDBF=T FulRan=T
         wScrn=  0.000000 ICntrl=     500 IOpCl=  0 I1Cent=   200000004 NGrid=           0
         NMat0=    1 NMatS0=      1 NMatT0=    0 NMatD0=    1 NMtDS0=    0 NMtDT0=    0
 Petite list used in FoFCou.
 Keep R1 ints in memory in canonical form, NReq=4993994.
 Requested convergence on RMS density matrix=1.00D-08 within 128 cycles.
 Requested convergence on MAX density matrix=1.00D-06.
 Requested convergence on             energy=1.00D-06.
 No special actions if energy rises.
 Integral accuracy reduced to 1.0D-05 until final iterations.
 Initial convergence to 1.0D-05 achieved.  Increase integral accuracy.
 SCF Done:  E(RB3LYP) =  -562.483182637     A.U. after   19 cycles
            NFock= 19  Conv=0.50D-08     -V/T= 2.0141
 Calling FoFJK, ICntrl=      2127 FMM=F ISym2X=0 I1Cent= 0 IOpClX= 0 NMat=1 NMatS=1 NMatT=0.
 ***** Axes restored to original set *****
 -------------------------------------------------------------------
 Center     Atomic                   Forces (Hartrees/Bohr)
 Number     Number              X              Y              Z
 -------------------------------------------------------------------
      1        7           0.000340254    0.001821423   -0.001208263
      2        6          -0.020374229    0.008107660   -0.001337005
      3        6           0.013794760    0.013206167   -0.020686908
      4        6           0.012832502   -0.026795896    0.008371249
      5        6           0.015495557    0.008037858    0.004350361
      6        6          -0.009230228    0.007923796   -0.003912736
      7        6           0.007664235   -0.006961858   -0.003737426
      8        6          -0.019496247    0.004602535    0.011041708
      9        6           0.006412071   -0.010378109    0.005394468
     10        6          -0.003944619    0.005365358   -0.006463626
     11        6          -0.002699109    0.002290063    0.007241881
     12        6           0.005019388   -0.003191839   -0.003663545
     13        7           0.000395762   -0.000927320    0.004216779
     14        6          -0.000369941   -0.000527529   -0.002673542
     15        1          -0.003056912   -0.001565522    0.002694947
     16        1           0.000345378    0.002833203   -0.001633430
     17        1           0.000427567   -0.001150645    0.000239982
     18        1          -0.001468293   -0.002891590    0.000174432
     19        1          -0.002087895    0.000202247    0.001590673
 -------------------------------------------------------------------
 Cartesian Forces:  Max     0.026795896 RMS     0.008183597

 GradGradGradGradGradGradGradGradGradGradGradGradGradGradGradGradGradGrad
 Berny optimization.
 Using GEDIIS/GDIIS optimizer.
 FormGI is forming the generalized inverse of G from B-inverse, IUseBI=4.
 Internal  Forces:  Max     0.024837841 RMS     0.004842599
 Search for a local minimum.
 Step number   2 out of a maximum of  102
 All quantities printed in internal units (Hartrees-Bohrs-Radians)
 Mixed Optimization -- RFO/linear search
 Update second derivatives using D2CorX and points    1    2
 DE= -4.85D-02 DEPred=-5.38D-02 R= 9.01D-01
 TightC=F SS=  1.41D+00  RLast= 5.54D-01 DXNew= 5.0454D-01 1.6632D+00
 Trust test= 9.01D-01 RLast= 5.54D-01 DXMaxT set to 5.05D-01
 ITU=  1  0
 Use linear search instead of GDIIS.
     Eigenvalues ---    0.01376   0.01378   0.01974   0.02036   0.02065
     Eigenvalues ---    0.02108   0.02121   0.02165   0.02165   0.02189
     Eigenvalues ---    0.02196   0.02198   0.02244   0.02297   0.02473
     Eigenvalues ---    0.04137   0.04860   0.04861   0.15607   0.15914
     Eigenvalues ---    0.15943   0.15970   0.16003   0.21872   0.22142
     Eigenvalues ---    0.22378   0.23021   0.23498   0.24368   0.24927
     Eigenvalues ---    0.24990   0.34916   0.34982   0.35009   0.35181
     Eigenvalues ---    0.35202   0.37820   0.38867   0.40766   0.41321
     Eigenvalues ---    0.41703   0.43569   0.44401   0.45603   0.46114
     Eigenvalues ---    0.46232   0.46619   0.46703   0.53212   1.22887
     Eigenvalues ---    1.27769
 RFO step:  Lambda=-3.54279011D-02 EMin= 1.37570825D-02
 Quartic linear search produced a step of  0.46437.
 Iteration  1 RMS(Cart)=  0.16984992 RMS(Int)=  0.04294568
 Iteration  2 RMS(Cart)=  0.08797636 RMS(Int)=  0.00762279
 Iteration  3 RMS(Cart)=  0.01052391 RMS(Int)=  0.00460742
 Iteration  4 RMS(Cart)=  0.00016140 RMS(Int)=  0.00460659
 Iteration  5 RMS(Cart)=  0.00000147 RMS(Int)=  0.00460659
 Iteration  6 RMS(Cart)=  0.00000002 RMS(Int)=  0.00460659
 Variable       Old X    -DE/DX   Delta X   Delta X   Delta X     New X
                                 (Linear)    (Quad)   (Total)
    R1        2.26923   0.00171   0.02811  -0.02668   0.00143   2.27066
    R2        2.78066  -0.00364   0.01542  -0.02671  -0.01129   2.76937
    R3        2.67508   0.00011   0.01887  -0.02026  -0.00012   2.67496
    R4        2.71015   0.00628   0.03757  -0.01988   0.01598   2.72613
    R5        2.74673   0.00107   0.05438  -0.05419   0.00322   2.74995
    R6        2.68439  -0.00689   0.02267  -0.04225  -0.01801   2.66638
    R7        2.07678   0.00152   0.00918  -0.00403   0.00515   2.08193
    R8        2.73261   0.00304   0.02646  -0.01692   0.00817   2.74078
    R9        2.74277   0.00178   0.01728  -0.01206   0.00522   2.74799
   R10        2.77513   0.00197   0.05344  -0.04289   0.00773   2.78286
   R11        2.71241   0.00135   0.02463  -0.02031   0.00422   2.71663
   R12        2.72371   0.00345   0.03817  -0.02822   0.00980   2.73351
   R13        2.63660  -0.00492   0.00335  -0.01653  -0.01311   2.62350
   R14        2.07426   0.00152   0.00823  -0.00311   0.00511   2.07937
   R15        2.70195   0.00322   0.03218  -0.02558   0.00683   2.70878
   R16        2.07266   0.00076   0.00877  -0.00620   0.00257   2.07523
   R17        2.63478  -0.00432  -0.00090  -0.01128  -0.01207   2.62271
   R18        2.07272   0.00109   0.00877  -0.00511   0.00367   2.07638
   R19        2.07638   0.00058   0.00840  -0.00641   0.00199   2.07837
   R20        2.26620   0.00431   0.03401  -0.03019   0.00383   2.27002
    A1        2.06175  -0.01014  -0.00267  -0.03686  -0.03776   2.02399
    A2        2.04137   0.00193   0.01737   0.04056   0.03162   2.07299
    A3        2.05776   0.00044   0.03565   0.01590   0.02622   2.08398
    A4        2.04776   0.00742   0.00196   0.07061   0.05859   2.10636
    A5        2.06928   0.00112   0.01472  -0.00502   0.00945   2.07873
    A6        2.10694   0.00194   0.00398   0.02282   0.01601   2.12295
    A7        2.08584  -0.00132  -0.00566   0.01199  -0.00440   2.08143
    A8        2.08106   0.00085  -0.00021   0.00771   0.00798   2.08903
    A9        2.08575   0.00149   0.00702  -0.00136   0.00323   2.08898
   A10        2.11633  -0.00231  -0.00590  -0.00570  -0.01425   2.10207
   A11        2.03624  -0.00307  -0.00734   0.00195  -0.00928   2.02695
   A12        2.17676  -0.00082  -0.00282  -0.01060  -0.01127   2.16549
   A13        2.06900   0.00398   0.01085   0.01055   0.02174   2.09074
   A14        2.08904   0.00685   0.01270   0.02775   0.03805   2.12710
   A15        2.12851  -0.00032   0.01114  -0.02319  -0.01012   2.11839
   A16        2.05424  -0.00660  -0.02415  -0.00495  -0.02865   2.02559
   A17        2.10304   0.00430   0.01152   0.01581   0.02621   2.12924
   A18        2.08760  -0.00432  -0.01268  -0.01465  -0.02688   2.06072
   A19        2.08925   0.00010   0.00160   0.00029   0.00228   2.09153
   A20        2.09756   0.00014   0.00329  -0.00213   0.00035   2.09790
   A21        2.09366   0.00101  -0.00036   0.00768   0.00750   2.10115
   A22        2.09028  -0.00106  -0.00240  -0.00427  -0.00655   2.08373
   A23        2.10467  -0.00058   0.00458  -0.00743  -0.00342   2.10125
   A24        2.09253  -0.00080  -0.00148  -0.00426  -0.00545   2.08709
   A25        2.08597   0.00138  -0.00310   0.01168   0.00886   2.09483
   A26        2.10023  -0.00044  -0.00157   0.00438   0.00113   2.10136
   A27        2.09862  -0.00132  -0.00089  -0.00879  -0.00996   2.08866
   A28        2.08139   0.00196   0.00399   0.00795   0.01167   2.09306
   A29        3.02327   0.00245   0.01889   0.04860   0.06749   3.09077
   A30        3.16036  -0.00103  -0.00332  -0.01277  -0.01609   3.14427
   A31        3.06996   0.00174   0.00861   0.03853   0.04713   3.11709
   A32        3.13942  -0.00038  -0.00286  -0.00328  -0.00614   3.13328
    D1        2.11047   0.02484   0.13878   0.38063   0.51778   2.62824
    D2       -0.48364   0.00682   0.04359   0.14358   0.18436  -0.29928
    D3        0.01040  -0.00550  -0.02515  -0.10217  -0.12463  -0.11423
    D4       -2.96577  -0.00438  -0.02063  -0.09903  -0.11688  -3.08265
    D5       -2.02066  -0.02135  -0.11301  -0.34545  -0.46236  -2.48302
    D6        0.90045  -0.01256  -0.06166  -0.19078  -0.25492   0.64553
    D7        0.56823  -0.00266  -0.02469  -0.09807  -0.12506   0.44317
    D8       -2.79384   0.00614   0.02667   0.05660   0.08238  -2.71146
    D9       -0.16176   0.00123   0.00046   0.01414   0.00965  -0.15211
   D10        2.96881   0.00496   0.02636   0.08059   0.10481   3.07362
   D11       -3.08560  -0.00788  -0.05213  -0.14005  -0.19538   3.00221
   D12        0.04497  -0.00415  -0.02623  -0.07361  -0.10021  -0.05525
   D13       -0.30309   0.00297   0.01669   0.04849   0.06520  -0.23789
   D14        2.78514   0.00507   0.02947   0.09142   0.12147   2.90661
   D15        2.84973  -0.00085  -0.01019  -0.01918  -0.03081   2.81892
   D16       -0.34522   0.00125   0.00259   0.02374   0.02546  -0.31976
   D17        0.38544  -0.00038  -0.00083  -0.00454  -0.00321   0.38222
   D18       -2.91462  -0.00093  -0.00205  -0.00943  -0.00925  -2.92387
   D19       -2.70623  -0.00221  -0.01222  -0.04404  -0.05592  -2.76214
   D20        0.27690  -0.00277  -0.01343  -0.04894  -0.06195   0.21495
   D21        3.08719  -0.00256  -0.01603  -0.04435  -0.06096   3.02623
   D22       -0.13742   0.00044   0.00175   0.00588   0.00638  -0.13104
   D23       -0.10869  -0.00062  -0.00379  -0.00094  -0.00367  -0.11235
   D24        2.94989   0.00238   0.01399   0.04929   0.06367   3.01356
   D25        2.73775   0.00316   0.01417   0.05273   0.06638   2.80413
   D26       -0.31645   0.00208   0.00857   0.03351   0.04162  -0.27483
   D27       -0.24157   0.00305   0.01537   0.05279   0.06772  -0.17385
   D28        2.98742   0.00197   0.00977   0.03356   0.04296   3.03037
   D29        0.03437   0.00008   0.00122  -0.00857  -0.00822   0.02615
   D30       -3.04458  -0.00140  -0.00722  -0.03212  -0.04027  -3.08485
   D31        3.08849   0.00094   0.00600   0.00993   0.01554   3.10403
   D32        0.00953  -0.00054  -0.00244  -0.01362  -0.01651  -0.00697
   D33        0.14426  -0.00216  -0.01205  -0.04257  -0.05523   0.08903
   D34       -2.99336  -0.00227  -0.01199  -0.04030  -0.05263  -3.04599
   D35       -3.05985  -0.00062  -0.00353  -0.01863  -0.02300  -3.08285
   D36        0.08571  -0.00072  -0.00348  -0.01636  -0.02040   0.06531
   D37       -0.10332   0.00240   0.01431   0.04556   0.05986  -0.04347
   D38        3.12047  -0.00042  -0.00297  -0.00338  -0.00663   3.11384
   D39        3.03432   0.00250   0.01426   0.04326   0.05721   3.09153
   D40       -0.02508  -0.00031  -0.00302  -0.00568  -0.00927  -0.03435
         Item               Value     Threshold  Converged?
 Maximum Force            0.024838     0.000450     NO 
 RMS     Force            0.004843     0.000300     NO 
 Maximum Displacement     1.369443     0.001800     NO 
 RMS     Displacement     0.255441     0.001200     NO 
 Predicted change in Energy=-2.666880D-02
 GradGradGradGradGradGradGradGradGradGradGradGradGradGradGradGradGradGrad

                          Input orientation:                          
 ---------------------------------------------------------------------
 Center     Atomic      Atomic             Coordinates (Angstroms)
 Number     Number       Type             X           Y           Z
 ---------------------------------------------------------------------
      1          7           0        7.913063    4.976193   -0.875188
      2          6           0        7.535409    3.877439   -0.568742
      3          6           0        7.214140    1.491606   -1.162900
      4          6           0        7.148342    2.516136   -0.188361
      5          6           0        6.965066    2.192233    1.218455
      6          6           0        7.379927    0.929340    1.691611
      7          6           0        7.801754   -0.088246    0.748152
      8          6           0        7.475450    0.162819   -0.665752
      9          6           0        7.638352   -0.958957   -1.564349
     10          6           0        8.263888   -2.133527   -1.168811
     11          6           0        8.744459   -2.277681    0.173937
     12          6           0        8.496810   -1.291029    1.118071
     13          7           0        7.206137    0.379000    4.283529
     14          6           0        7.281390    0.623614    3.109863
     15          1           0        6.521988    2.912741    1.924368
     16          1           0        7.303507   -0.840953   -2.605857
     17          1           0        8.420809   -2.948644   -1.887782
     18          1           0        9.317215   -3.173235    0.451848
     19          1           0        8.846462   -1.421509    2.152639
 ---------------------------------------------------------------------
                    Distance matrix (angstroms):
                    1          2          3          4          5
     1  N    0.000000
     2  C    1.201579   0.000000
     3  C    3.565616   2.479604   0.000000
     4  C    2.666160   1.465488   1.415528   0.000000
     5  C    3.610051   2.521762   2.494748   1.455209   0.000000
     6  C    4.821794   3.718152   2.914079   2.471001   1.410987
     7  C    5.319413   4.187099   2.548203   2.843731   2.474230
     8  C    4.837761   3.716370   1.442606   2.423428   2.815892
     9  C    5.981339   4.938882   2.519201   3.769579   4.257618
    10  C    7.124423   6.084609   3.774068   4.881095   5.108638
    11  C    7.376352   6.316555   4.282118   5.065524   4.923148
    12  C    6.602417   5.521114   3.819834   4.244955   3.806499
    13  N    6.945954   5.990996   5.558915   4.956661   3.569399
    14  C    5.935030   4.917727   4.360554   3.804947   2.477509
    15  H    3.745723   2.858893   3.468418   2.239026   1.101709
    16  H    6.099669   5.144593   2.744257   4.139857   4.892865
    17  H    8.005385   7.008509   4.658039   5.862681   6.180333
    18  H    8.375312   7.343599   5.365732   6.122322   5.908346
    19  H    7.139297   6.099478   4.705690   4.885585   4.179891
                    6          7          8          9         10
     6  C    0.000000
     7  C    1.450356   0.000000
     8  C    2.480693   1.472627   0.000000
     9  C    3.772761   2.476388   1.446512   0.000000
    10  C    4.283054   2.841037   2.479498   1.388294   0.000000
    11  C    3.801351   2.451947   2.876022   2.446251   1.433423
    12  C    2.550768   1.437579   2.517712   2.835948   2.448241
    13  N    2.655394   3.615518   4.961314   6.014534   6.095870
    14  C    1.454172   2.520953   3.808577   4.947748   5.184031
    15  H    2.173502   3.468026   3.896136   5.329865   6.169829
    16  H    4.648441   3.473354   2.191149   1.100356   2.158281
    17  H    5.379056   3.938687   3.473941   2.162337   1.098162
    18  H    4.703321   3.449867   3.971195   3.433171   2.194773
    19  H    2.808873   2.200362   3.511851   3.935669   3.446504
                   11         12         13         14         15
    11  C    0.000000
    12  C    1.387876   0.000000
    13  N    5.129633   3.804597   0.000000
    14  C    4.379240   3.018335   1.201245   0.000000
    15  H    5.911333   4.713992   3.528957   2.687413   0.000000
    16  H    3.444965   3.936264   6.997242   5.900415   5.934975
    17  H    2.192174   3.433455   7.115737   6.247860   7.245263
    18  H    1.098773   2.158614   5.635318   5.062183   6.857165
    19  H    2.158402   1.099824   3.236231   2.747409   4.923516
                   16         17         18         19
    16  H    0.000000
    17  H    2.491256   0.000000
    18  H    4.340981   2.515522   0.000000
    19  H    5.035974   4.340314   2.486533   0.000000
 Stoichiometry    C12H5N2(1-)
 Framework group  C1[X(C12H5N2)]
 Deg. of freedom    51
 Full point group                 C1      NOp   1
 Largest Abelian subgroup         C1      NOp   1
 Largest concise Abelian subgroup C1      NOp   1
                         Standard orientation:                         
 ---------------------------------------------------------------------
 Center     Atomic      Atomic             Coordinates (Angstroms)
 Number     Number       Type             X           Y           Z
 ---------------------------------------------------------------------
      1          7           0        4.295324   -1.077156    0.779430
      2          6           0        3.244754   -0.798893    0.266922
      3          6           0        0.984553   -1.497685   -0.475787
      4          6           0        1.931114   -0.461989   -0.288508
      5          6           0        1.532851    0.934356   -0.384629
      6          6           0        0.190382    1.284363   -0.127423
      7          6           0       -0.804452    0.242248    0.039416
      8          6           0       -0.401939   -1.111562   -0.377493
      9          6           0       -1.464511   -2.087990   -0.477124
     10          6           0       -2.745267   -1.832028   -0.006478
     11          6           0       -3.059863   -0.558763    0.571906
     12          6           0       -2.121404    0.463731    0.571597
     13          7           0       -0.521899    3.842428   -0.136180
     14          6           0       -0.203381    2.684181   -0.136312
     15          1           0        2.255798    1.725127   -0.641128
     16          1           0       -1.220010   -3.079244   -0.887513
     17          1           0       -3.518103   -2.611143   -0.047272
     18          1           0       -4.048799   -0.397239    1.022703
     19          1           0       -2.379879    1.445782    0.993946
 ---------------------------------------------------------------------
 Rotational constants (GHZ):      0.9303371      0.6023614      0.3828135
 Standard basis: STO-3G (5D, 7F)
 There are    75 symmetry adapted cartesian basis functions of A   symmetry.
 There are    75 symmetry adapted basis functions of A   symmetry.
    75 basis functions,   225 primitive gaussians,    75 cartesian basis functions
    46 alpha electrons       46 beta electrons
       nuclear repulsion energy       696.2215399975 Hartrees.
 NAtoms=   19 NActive=   19 NUniq=   19 SFac= 1.00D+00 NAtFMM=   60 NAOKFM=F Big=F
 Integral buffers will be    131072 words long.
 Raffenetti 2 integral format.
 Two-electron integral symmetry is turned on.
 One-electron integrals computed using PRISM.
 NBasis=    75 RedAO= T EigKep=  1.76D-01  NBF=    75
 NBsUse=    75 1.00D-06 EigRej= -1.00D+00 NBFU=    75
 Initial guess from the checkpoint file:  "/tmp/bnp.472654.sequoia/Gau-26513.chk"
 B after Tr=     0.000000    0.000000    0.000000
         Rot=    0.997541    0.004636   -0.006508   -0.069633 Ang=   8.04 deg.
 ExpMin= 1.69D-01 ExpMax= 9.91D+01 ExpMxC= 9.91D+01 IAcc=1 IRadAn=         1 AccDes= 0.00D+00
 Harris functional with IExCor=  402 and IRadAn=       1 diagonalized for initial guess.
 HarFok:  IExCor=  402 AccDes= 0.00D+00 IRadAn=         1 IDoV= 1 UseB2=F ITyADJ=14
 ICtDFT=  3500011 ScaDFX=  1.000000  1.000000  1.000000  1.000000
 FoFCou: FMM=F IPFlag=           0 FMFlag=      100000 FMFlg1=           0
         NFxFlg=           0 DoJE=T BraDBF=F KetDBF=T FulRan=T
         wScrn=  0.000000 ICntrl=     500 IOpCl=  0 I1Cent=   200000004 NGrid=           0
         NMat0=    1 NMatS0=      1 NMatT0=    0 NMatD0=    1 NMtDS0=    0 NMtDT0=    0
 Petite list used in FoFCou.
 Keep R1 ints in memory in canonical form, NReq=4993994.
 Requested convergence on RMS density matrix=1.00D-08 within 128 cycles.
 Requested convergence on MAX density matrix=1.00D-06.
 Requested convergence on             energy=1.00D-06.
 No special actions if energy rises.
 Integral accuracy reduced to 1.0D-05 until final iterations.
 Initial convergence to 1.0D-05 achieved.  Increase integral accuracy.
 SCF Done:  E(RB3LYP) =  -562.510304320     A.U. after   19 cycles
            NFock= 19  Conv=0.74D-08     -V/T= 2.0141
 Calling FoFJK, ICntrl=      2127 FMM=F ISym2X=0 I1Cent= 0 IOpClX= 0 NMat=1 NMatS=1 NMatT=0.
 ***** Axes restored to original set *****
 -------------------------------------------------------------------
 Center     Atomic                   Forces (Hartrees/Bohr)
 Number     Number              X              Y              Z
 -------------------------------------------------------------------
      1        7          -0.000913558   -0.002156386    0.000534303
      2        6          -0.009744654    0.006929708   -0.000035525
      3        6           0.002995241    0.012363907   -0.018528813
      4        6           0.005471991   -0.018853374    0.010178584
      5        6           0.005107558    0.006589635   -0.002828321
      6        6          -0.008771515    0.003725348   -0.000499345
      7        6           0.004016477   -0.001595991   -0.009525882
      8        6           0.000470194   -0.007529700    0.017376351
      9        6          -0.001170175    0.001699340   -0.000019172
     10        6          -0.000033871   -0.001907444    0.000535340
     11        6          -0.000122607   -0.000847748   -0.001276871
     12        6          -0.000976910    0.000338522    0.001166881
     13        7          -0.000064512    0.000285020   -0.001158915
     14        6           0.001611442   -0.000822619    0.002621661
     15        1           0.002901417    0.000488561    0.001266302
     16        1           0.001682970    0.001279556   -0.000205969
     17        1           0.000205135    0.000176430    0.000404176
     18        1          -0.001536987   -0.000579403   -0.000016478
     19        1          -0.001127636    0.000416639    0.000011695
 -------------------------------------------------------------------
 Cartesian Forces:  Max     0.018853374 RMS     0.005656018

 GradGradGradGradGradGradGradGradGradGradGradGradGradGradGradGradGradGrad
 Berny optimization.
 Using GEDIIS/GDIIS optimizer.
 FormGI is forming the generalized inverse of G from B-inverse, IUseBI=4.
 Internal  Forces:  Max     0.011648640 RMS     0.003137607
 Search for a local minimum.
 Step number   3 out of a maximum of  102
 All quantities printed in internal units (Hartrees-Bohrs-Radians)
 Mixed Optimization -- RFO/linear search
 Update second derivatives using D2CorX and points    2    3
 DE= -2.71D-02 DEPred=-2.67D-02 R= 1.02D+00
 TightC=F SS=  1.41D+00  RLast= 8.81D-01 DXNew= 8.4853D-01 2.6434D+00
 Trust test= 1.02D+00 RLast= 8.81D-01 DXMaxT set to 8.49D-01
 ITU=  1  1  0
 Use linear search instead of GDIIS.
     Eigenvalues ---    0.01376   0.01378   0.01698   0.02027   0.02053
     Eigenvalues ---    0.02064   0.02103   0.02108   0.02162   0.02166
     Eigenvalues ---    0.02181   0.02192   0.02196   0.02241   0.02532
     Eigenvalues ---    0.03241   0.04861   0.04870   0.15847   0.15982
     Eigenvalues ---    0.15996   0.15998   0.16008   0.21715   0.22103
     Eigenvalues ---    0.22693   0.23287   0.24466   0.24676   0.24912
     Eigenvalues ---    0.25510   0.34917   0.34979   0.35009   0.35181
     Eigenvalues ---    0.35204   0.37941   0.38883   0.40732   0.41398
     Eigenvalues ---    0.41751   0.43708   0.44255   0.45598   0.46167
     Eigenvalues ---    0.46447   0.46616   0.47284   0.53081   1.22897
     Eigenvalues ---    1.27670
 RFO step:  Lambda=-7.55470199D-03 EMin= 1.37564012D-02
 Quartic linear search produced a step of  0.75952.
 Iteration  1 RMS(Cart)=  0.16895471 RMS(Int)=  0.04316421
 Iteration  2 RMS(Cart)=  0.08086111 RMS(Int)=  0.00878003
 Iteration  3 RMS(Cart)=  0.01402886 RMS(Int)=  0.00514596
 Iteration  4 RMS(Cart)=  0.00023790 RMS(Int)=  0.00514307
 Iteration  5 RMS(Cart)=  0.00000178 RMS(Int)=  0.00514307
 Iteration  6 RMS(Cart)=  0.00000002 RMS(Int)=  0.00514307
 Variable       Old X    -DE/DX   Delta X   Delta X   Delta X     New X
                                 (Linear)    (Quad)   (Total)
    R1        2.27066  -0.00240   0.00108  -0.00193  -0.00085   2.26981
    R2        2.76937   0.00149  -0.00857   0.01406   0.00548   2.77486
    R3        2.67496   0.00173  -0.00009   0.00812   0.00976   2.68472
    R4        2.72613   0.01059   0.01214   0.03416   0.04497   2.77111
    R5        2.74995  -0.00521   0.00244  -0.01500  -0.00977   2.74018
    R6        2.66638  -0.00410  -0.01368  -0.00424  -0.01678   2.64960
    R7        2.08193  -0.00004   0.00391  -0.00178   0.00214   2.08406
    R8        2.74078   0.00276   0.00620   0.00921   0.01378   2.75456
    R9        2.74799   0.00143   0.00396   0.00512   0.00908   2.75707
   R10        2.78286  -0.00558   0.00587  -0.01866  -0.01580   2.76706
   R11        2.71663  -0.00059   0.00321  -0.00184   0.00120   2.71783
   R12        2.73351  -0.00073   0.00744  -0.00366   0.00342   2.73693
   R13        2.62350   0.00111  -0.00995   0.01080   0.00098   2.62447
   R14        2.07937  -0.00018   0.00388  -0.00256   0.00133   2.08070
   R15        2.70878  -0.00134   0.00519  -0.00516   0.00052   2.70930
   R16        2.07523  -0.00037   0.00195  -0.00208  -0.00013   2.07510
   R17        2.62271   0.00099  -0.00917   0.00936   0.00051   2.62322
   R18        2.07638  -0.00033   0.00278  -0.00248   0.00030   2.07668
   R19        2.07837  -0.00040   0.00151  -0.00198  -0.00047   2.07790
   R20        2.27002  -0.00119   0.00291  -0.00089   0.00201   2.27204
    A1        2.02399  -0.01165  -0.02868  -0.04486  -0.07218   1.95181
    A2        2.07299  -0.00029   0.02402  -0.00245  -0.00641   2.06658
    A3        2.08398  -0.00727   0.01991  -0.04399  -0.05201   2.03197
    A4        2.10636   0.00908   0.04450   0.05141   0.07678   2.18313
    A5        2.07873   0.00007   0.00718   0.00246   0.00701   2.08574
    A6        2.12295   0.00091   0.01216   0.00258   0.00620   2.12915
    A7        2.08143  -0.00095  -0.00334  -0.00546  -0.01789   2.06354
    A8        2.08903  -0.00095   0.00606  -0.00298   0.00138   2.09041
    A9        2.08898   0.00130   0.00246   0.00681   0.00860   2.09758
   A10        2.10207  -0.00035  -0.01083   0.00305  -0.00876   2.09331
   A11        2.02695   0.00038  -0.00705   0.01319   0.00027   2.02723
   A12        2.16549  -0.00191  -0.00856  -0.01285  -0.01842   2.14707
   A13        2.09074   0.00152   0.01651  -0.00039   0.01634   2.10708
   A14        2.12710   0.00486   0.02890   0.02734   0.05314   2.18023
   A15        2.11839  -0.00418  -0.00768  -0.02638  -0.03216   2.08623
   A16        2.02559  -0.00053  -0.02176   0.00934  -0.01315   2.01244
   A17        2.12924   0.00108   0.01990  -0.00117   0.01695   2.14619
   A18        2.06072  -0.00122  -0.02042   0.00078  -0.01891   2.04181
   A19        2.09153   0.00017   0.00173   0.00042   0.00282   2.09435
   A20        2.09790  -0.00088   0.00026  -0.00372  -0.00436   2.09354
   A21        2.10115   0.00076   0.00569   0.00115   0.00709   2.10824
   A22        2.08373   0.00013  -0.00497   0.00231  -0.00244   2.08129
   A23        2.10125  -0.00082  -0.00260  -0.00115  -0.00430   2.09695
   A24        2.08709   0.00004  -0.00414   0.00106  -0.00282   2.08427
   A25        2.09483   0.00078   0.00673   0.00015   0.00714   2.10197
   A26        2.10136  -0.00003   0.00086   0.00203   0.00085   2.10221
   A27        2.08866  -0.00081  -0.00757  -0.00373  -0.01148   2.07718
   A28        2.09306   0.00085   0.00887   0.00166   0.01028   2.10334
   A29        3.09077   0.00034   0.05126  -0.04846   0.00281   3.09358
   A30        3.14427   0.00026  -0.01222   0.01967   0.00745   3.15172
   A31        3.11709   0.00013   0.03580  -0.04733  -0.01154   3.10556
   A32        3.13328   0.00019  -0.00466   0.00974   0.00508   3.13835
    D1        2.62824   0.01007   0.39326   0.04884   0.44215   3.07039
    D2       -0.29928   0.00295   0.14002   0.02799   0.16703  -0.13225
    D3       -0.11423  -0.00160  -0.09466   0.05445  -0.03443  -0.14866
    D4       -3.08265  -0.00265  -0.08877  -0.01951  -0.10350   3.09704
    D5       -2.48302  -0.01062  -0.35117  -0.12054  -0.47134  -2.95436
    D6        0.64553  -0.00766  -0.19362  -0.15930  -0.35184   0.29369
    D7        0.44317  -0.00259  -0.09498  -0.09443  -0.19598   0.24720
    D8       -2.71146   0.00038   0.06257  -0.13319  -0.07648  -2.78794
    D9       -0.15211   0.00203   0.00733   0.07905   0.08015  -0.07196
   D10        3.07362   0.00190   0.07961  -0.01429   0.06187   3.13549
   D11        3.00221  -0.00088  -0.14839   0.11681  -0.03504   2.96717
   D12       -0.05525  -0.00101  -0.07611   0.02348  -0.05333  -0.10857
   D13       -0.23789   0.00143   0.04952   0.01083   0.06002  -0.17787
   D14        2.90661   0.00229   0.09226   0.02853   0.12147   3.02808
   D15        2.81892   0.00164  -0.02340   0.10506   0.07911   2.89803
   D16       -0.31976   0.00250   0.01934   0.12276   0.14056  -0.17920
[...]
 ! D14   D(5,6,7,12)           179.9817         -DE/DX =    0.0                 !
 ! D15   D(14,6,7,8)           179.981          -DE/DX =    0.0                 !
 ! D16   D(14,6,7,12)           -0.0263         -DE/DX =    0.0                 !
 ! D17   D(6,7,8,3)              0.0032         -DE/DX =    0.0                 !
 ! D18   D(6,7,8,9)            179.9898         -DE/DX =    0.0                 !
 ! D19   D(12,7,8,3)          -179.9896         -DE/DX =    0.0                 !
 ! D20   D(12,7,8,9)            -0.003          -DE/DX =    0.0                 !
 ! D21   D(6,7,12,11)         -179.9911         -DE/DX =    0.0                 !
 ! D22   D(6,7,12,19)            0.0066         -DE/DX =    0.0                 !
 ! D23   D(8,7,12,11)            0.0014         -DE/DX =    0.0                 !
 ! D24   D(8,7,12,19)          179.9991         -DE/DX =    0.0                 !
 ! D25   D(3,8,9,10)           179.9911         -DE/DX =    0.0                 !
 ! D26   D(3,8,9,16)            -0.0063         -DE/DX =    0.0                 !
 ! D27   D(7,8,9,10)             0.0031         -DE/DX =    0.0                 !
 ! D28   D(7,8,9,16)          -179.9942         -DE/DX =    0.0                 !
 ! D29   D(8,9,10,11)           -0.0015         -DE/DX =    0.0                 !
 ! D30   D(8,9,10,17)         -179.998          -DE/DX =    0.0                 !
 ! D31   D(16,9,10,11)         179.9958         -DE/DX =    0.0                 !
 ! D32   D(16,9,10,17)          -0.0007         -DE/DX =    0.0                 !
 ! D33   D(9,10,11,12)          -0.0004         -DE/DX =    0.0                 !
 ! D34   D(9,10,11,18)         180.001          -DE/DX =    0.0                 !
 ! D35   D(17,10,11,12)        179.9961         -DE/DX =    0.0                 !
 ! D36   D(17,10,11,18)         -0.0025         -DE/DX =    0.0                 !
 ! D37   D(10,11,12,7)           0.0004         -DE/DX =    0.0                 !
 ! D38   D(10,11,12,19)       -179.9973         -DE/DX =    0.0                 !
 ! D39   D(18,11,12,7)         179.999          -DE/DX =    0.0                 !
 ! D40   D(18,11,12,19)          0.0013         -DE/DX =    0.0                 !
 --------------------------------------------------------------------------------
 GradGradGradGradGradGradGradGradGradGradGradGradGradGradGradGradGradGrad

                          Input orientation:                          
 ---------------------------------------------------------------------
 Center     Atomic      Atomic             Coordinates (Angstroms)
 Number     Number       Type             X           Y           Z
 ---------------------------------------------------------------------
      1          7           0        6.706656    5.027623   -0.891557
      2          6           0        6.957526    3.897995   -0.575297
      3          6           0        7.496951    1.565137   -1.277039
      4          6           0        7.265729    2.502021   -0.201753
      5          6           0        7.297825    2.243711    1.209088
      6          6           0        7.578738    0.957692    1.695072
      7          6           0        7.837136   -0.108412    0.734904
      8          6           0        7.787806    0.226590   -0.678771
      9          6           0        8.049634   -0.857280   -1.595063
     10          6           0        8.334527   -2.153682   -1.175859
     11          6           0        8.375768   -2.451428    0.218384
     12          6           0        8.132497   -1.450998    1.151953
     13          7           0        7.633503    0.496962    4.309690
     14          6           0        7.609831    0.700178    3.126499
     15          1           0        7.101910    3.052243    1.930988
     16          1           0        8.016173   -0.620152   -2.668560
     17          1           0        8.527989   -2.949972   -1.906312
     18          1           0        8.600420   -3.473828    0.551385
     19          1           0        8.163549   -1.677061    2.226977
 ---------------------------------------------------------------------
                    Distance matrix (angstroms):
                    1          2          3          4          5
     1  N    0.000000
     2  C    1.199589   0.000000
     3  C    3.572390   2.495125   0.000000
     4  C    2.677136   1.477589   1.444802   0.000000
     5  C    3.537281   2.456927   2.584751   1.434652   0.000000
     6  C    4.900563   3.766413   3.034654   2.465942   1.403188
     7  C    5.504744   4.306000   2.639016   2.831640   2.459306
     8  C    4.925859   3.765540   1.494734   2.382792   2.805864
     9  C    6.077055   4.984503   2.504936   3.720312   4.247897
    10  C    7.368985   6.235352   3.813317   4.875119   5.108796
    11  C    7.743004   6.554122   4.375089   5.093658   4.918108
    12  C    6.941288   5.742445   3.924409   4.267336   3.788247
    13  N    6.959806   5.990582   5.689568   4.950619   3.574569
    14  C    5.973882   4.935061   4.489102   3.800302   2.481190
    15  H    3.467724   2.649077   3.557945   2.208656   1.101474
    16  H    6.063822   5.090789   2.642236   4.049230   4.873796
    17  H    8.245544   7.150707   4.673889   5.850047   6.180078
    18  H    8.828538   7.636249   5.472837   6.169229   5.900812
    19  H    7.536615   6.355193   4.820200   4.916252   4.142225
                    6          7          8          9         10
     6  C    0.000000
     7  C    1.457831   0.000000
     8  C    2.492660   1.453663   0.000000
     9  C    3.786933   2.456563   1.443232   0.000000
    10  C    4.300479   2.842806   2.492327   1.391961   0.000000
    11  C    3.799733   2.458992   2.884851   2.436444   1.426277
    12  C    2.530497   1.436560   2.506923   2.811666   2.439937
    13  N    2.655465   3.631396   4.998165   6.072334   6.132585
    14  C    1.454737   2.534800   3.838755   4.991217   5.213443
    15  H    2.161056   3.458455   3.907123   5.349354   6.186558
    16  H    4.660711   3.446375   2.174485   1.099884   2.163613
    17  H    5.398230   3.940528   3.485007   2.169115   1.097755
    18  H    4.689374   3.455765   3.983305   3.428837   2.190173
    19  H    2.750791   2.189404   3.494057   3.910627   3.440305
                   11         12         13         14         15
    11  C    0.000000
    12  C    1.389818   0.000000
    13  N    5.097327   3.743640   0.000000
    14  C    4.356193   2.966407   1.200749   0.000000
    15  H    5.903061   4.684889   3.531328   2.686901   0.000000
    16  H    3.437634   3.911542   7.077454   5.957440   5.956358
    17  H    2.187704   3.428749   7.163807   6.284568   7.265339
    18  H    1.098481   2.161360   5.552203   5.003480   6.836552
    19  H    2.163129   1.098975   3.056962   2.601348   4.856027
                   16         17         18         19
    16  H    0.000000
    17  H    2.504205   0.000000
    18  H    4.341988   2.513950   0.000000
    19  H    5.010495   4.340184   2.495363   0.000000
 Stoichiometry    C12H5N2(1-)
 Framework group  C1[X(C12H5N2)]
 Deg. of freedom    51
 Full point group                 C1      NOp   1
 Largest Abelian subgroup         C1      NOp   1
 Largest concise Abelian subgroup C1      NOp   1
                         Standard orientation:                         
 ---------------------------------------------------------------------
 Center     Atomic      Atomic             Coordinates (Angstroms)
 Number     Number       Type             X           Y           Z
 ---------------------------------------------------------------------
      1          7           0        4.536457   -0.923241   -0.001062
      2          6           0        3.355454   -0.712902    0.000586
      3          6           0        1.034358   -1.628413    0.000161
      4          6           0        1.897948   -0.470110    0.000536
      5          6           0        1.512363    0.911755    0.000609
      6          6           0        0.157489    1.276794    0.000204
      7          6           0       -0.848005    0.221213   -0.000031
      8          6           0       -0.383882   -1.156366   -0.000076
      9          6           0       -1.411356   -2.169883   -0.000079
     10          6           0       -2.771149   -1.872364   -0.000105
     11          6           0       -3.195548   -0.510692   -0.000098
     12          6           0       -2.254765    0.512303   -0.000057
     13          7           0       -0.538592    3.839403   -0.000299
     14          6           0       -0.228965    2.679261   -0.000151
     15          1           0        2.275487    1.706040    0.000725
     16          1           0       -1.076560   -3.217575   -0.000014
     17          1           0       -3.521067   -2.674042   -0.000073
     18          1           0       -4.268152   -0.273666   -0.000101
     19          1           0       -2.578420    1.562538   -0.000007
 ---------------------------------------------------------------------
 Rotational constants (GHZ):      0.9745268      0.5837013      0.3650509

 **********************************************************************

            Population analysis using the SCF density.

 **********************************************************************

 Orbital symmetries:
       Occupied  (A) (A) (A) (A) (A) (A) (A) (A) (A) (A) (A) (A)
                 (A) (A) (A) (A) (A) (A) (A) (A) (A) (A) (A) (A)
                 (A) (A) (A) (A) (A) (A) (A) (A) (A) (A) (A) (A)
                 (A) (A) (A) (A) (A) (A) (A) (A) (A) (A)
       Virtual   (A) (A) (A) (A) (A) (A) (A) (A) (A) (A) (A) (A)
                 (A) (A) (A) (A) (A) (A) (A) (A) (A) (A) (A) (A)
                 (A) (A) (A) (A) (A)
 The electronic state is 1-A.
 Alpha  occ. eigenvalues --  -13.97103 -13.93819  -9.87982  -9.87689  -9.87325
 Alpha  occ. eigenvalues --   -9.87138  -9.86716  -9.86585  -9.86430  -9.85900
 Alpha  occ. eigenvalues --   -9.84657  -9.83540  -9.83515  -9.69325  -0.71151
 Alpha  occ. eigenvalues --   -0.68314  -0.66696  -0.62372  -0.56948  -0.54562
 Alpha  occ. eigenvalues --   -0.52587  -0.43203  -0.42282  -0.40790  -0.35590
 Alpha  occ. eigenvalues --   -0.32449  -0.30451  -0.25589  -0.24955  -0.23348
 Alpha  occ. eigenvalues --   -0.22318  -0.20599  -0.19648  -0.16108  -0.15751
 Alpha  occ. eigenvalues --   -0.13979  -0.13961  -0.13767  -0.12277  -0.10400
 Alpha  occ. eigenvalues --   -0.09360  -0.08527  -0.06519  -0.03458   0.01406
 Alpha  occ. eigenvalues --    0.09458
 Alpha virt. eigenvalues --    0.18854   0.21251   0.24076   0.26984   0.29736
 Alpha virt. eigenvalues --    0.30657   0.35104   0.37984   0.44771   0.45814
 Alpha virt. eigenvalues --    0.47972   0.50050   0.52405   0.55995   0.56226
 Alpha virt. eigenvalues --    0.58113   0.59667   0.61666   0.68176   0.69748
 Alpha virt. eigenvalues --    0.70111   0.75310   0.77536   0.80844   0.84194
 Alpha virt. eigenvalues --    0.90706   0.93764   1.08437   1.10045
          Condensed to atoms (all electrons):
               1          2          3          4          5          6
     1  N    6.627507   0.660548  -0.000014  -0.010948  -0.000024  -0.000001
     2  C    0.660548   4.970954  -0.032929   0.403521  -0.038998   0.000915
     3  C   -0.000014  -0.032929   5.473583   0.427094  -0.017758  -0.005557
     4  C   -0.010948   0.403521   0.427094   4.889583   0.463962  -0.029948
     5  C   -0.000024  -0.038998  -0.017758   0.463962   4.847573   0.506376
     6  C   -0.000001   0.000915  -0.005557  -0.029948   0.506376   4.806638
     7  C    0.000000   0.000002  -0.016812  -0.011039  -0.028584   0.449362
     8  C   -0.000002   0.001385   0.385145  -0.028752  -0.012032  -0.029211
     9  C    0.000000  -0.000005  -0.034017   0.001319   0.000011   0.000871
    10  C    0.000000   0.000000   0.000756  -0.000014   0.000000   0.000030
    11  C    0.000000   0.000000   0.000013   0.000001  -0.000007   0.000779
    12  C    0.000000   0.000000   0.000574   0.000054   0.000709  -0.028812
    13  N    0.000000   0.000000   0.000000  -0.000001  -0.000125  -0.011288
    14  C    0.000000  -0.000007  -0.000005   0.000802  -0.029526   0.425620
    15  H    0.000042  -0.003389   0.000949  -0.022318   0.381158  -0.026515
    16  H    0.000000  -0.000001  -0.001619   0.000029   0.000000  -0.000016
    17  H    0.000000   0.000000  -0.000017   0.000000   0.000000   0.000001
    18  H    0.000000   0.000000   0.000000   0.000000   0.000000  -0.000016
    19  H    0.000000   0.000000  -0.000013  -0.000002   0.000021  -0.003657
               7          8          9         10         11         12
     1  N    0.000000  -0.000002   0.000000   0.000000   0.000000   0.000000
     2  C    0.000002   0.001385  -0.000005   0.000000   0.000000   0.000000
     3  C   -0.016812   0.385145  -0.034017   0.000756   0.000013   0.000574
     4  C   -0.011039  -0.028752   0.001319  -0.000014   0.000001   0.000054
     5  C   -0.028584  -0.012032   0.000011   0.000000  -0.000007   0.000709
     6  C    0.449362  -0.029211   0.000871   0.000030   0.000779  -0.028812
     7  C    4.816430   0.451619  -0.034214  -0.009297  -0.027732   0.470699
     8  C    0.451619   4.895234   0.465149  -0.025554  -0.008768  -0.023638
     9  C   -0.034214   0.465149   4.840030   0.519076  -0.029269  -0.010617
    10  C   -0.009297  -0.025554   0.519076   4.839974   0.477602  -0.029726
    11  C   -0.027732  -0.008768  -0.029269   0.477602   4.823634   0.523721
    12  C    0.470699  -0.023638  -0.010617  -0.029726   0.523721   4.838605
    13  N   -0.000008  -0.000001   0.000000   0.000000   0.000000  -0.000121
    14  C   -0.026825   0.000691  -0.000006   0.000000   0.000017  -0.004271
    15  H    0.001293   0.000085   0.000001   0.000000   0.000000  -0.000016
    16  H    0.001420  -0.025864   0.384307  -0.026507   0.001433   0.000031
    17  H    0.000016   0.001282  -0.025326   0.387116  -0.025748   0.001353
    18  H    0.001379   0.000024   0.001354  -0.025243   0.386782  -0.025969
    19  H   -0.024920   0.001131   0.000015   0.001402  -0.025905   0.385247
              13         14         15         16         17         18
     1  N    0.000000   0.000000   0.000042   0.000000   0.000000   0.000000
     2  C    0.000000  -0.000007  -0.003389  -0.000001   0.000000   0.000000
     3  C    0.000000  -0.000005   0.000949  -0.001619  -0.000017   0.000000
     4  C   -0.000001   0.000802  -0.022318   0.000029   0.000000   0.000000
     5  C   -0.000125  -0.029526   0.381158   0.000000   0.000000   0.000000
     6  C   -0.011288   0.425620  -0.026515  -0.000016   0.000001  -0.000016
     7  C   -0.000008  -0.026825   0.001293   0.001420   0.000016   0.001379
     8  C   -0.000001   0.000691   0.000085  -0.025864   0.001282   0.000024
     9  C    0.000000  -0.000006   0.000001   0.384307  -0.025326   0.001354
    10  C    0.000000   0.000000   0.000000  -0.026507   0.387116  -0.025243
    11  C    0.000000   0.000017   0.000000   0.001433  -0.025748   0.386782
    12  C   -0.000121  -0.004271  -0.000016   0.000031   0.001353  -0.025969
    13  N    6.609916   0.657911   0.000065   0.000000   0.000000   0.000000
    14  C    0.657911   4.937990  -0.003663   0.000000   0.000000   0.000000
    15  H    0.000065  -0.003663   0.610849   0.000000   0.000000   0.000000
    16  H    0.000000   0.000000   0.000000   0.604404  -0.003732  -0.000035
    17  H    0.000000   0.000000   0.000000  -0.003732   0.619767  -0.003292
    18  H    0.000000   0.000000   0.000000  -0.000035  -0.003292   0.617275
    19  H   -0.000123   0.001669  -0.000002   0.000002  -0.000035  -0.003774
              19
     1  N    0.000000
     2  C    0.000000
     3  C   -0.000013
     4  C   -0.000002
     5  C    0.000021
     6  C   -0.003657
     7  C   -0.024920
     8  C    0.001131
     9  C    0.000015
    10  C    0.001402
    11  C   -0.025905
    12  C    0.385247
    13  N   -0.000123
    14  C    0.001669
    15  H   -0.000002
    16  H    0.000002
    17  H   -0.000035
    18  H   -0.003774
    19  H    0.606529
 Mulliken charges:
               1
     1  N   -0.277107
     2  C    0.038004
     3  C   -0.179373
     4  C   -0.083342
     5  C   -0.072756
     6  C   -0.055570
     7  C   -0.012789
     8  C   -0.047921
     9  C   -0.078680
    10  C   -0.109615
    11  C   -0.096553
    12  C   -0.097822
    13  N   -0.256227
    14  C    0.039603
    15  H    0.061460
    16  H    0.066146
    17  H    0.048613
    18  H    0.051515
    19  H    0.062415
 Sum of Mulliken charges =  -1.00000
 Mulliken charges with hydrogens summed into heavy atoms:
               1
     1  N   -0.277107
     2  C    0.038004
     3  C   -0.179373
     4  C   -0.083342
     5  C   -0.011297
     6  C   -0.055570
     7  C   -0.012789
     8  C   -0.047921
     9  C   -0.012534
    10  C   -0.061002
    11  C   -0.045038
    12  C   -0.035407
    13  N   -0.256227
    14  C    0.039603
 Electronic spatial extent (au):  <R**2>=           2803.2427
 Charge=             -1.0000 electrons
 Dipole moment (field-independent basis, Debye):
    X=             -5.5834    Y=              0.3877    Z=              0.0022  Tot=              5.5969
 Quadrupole moment (field-independent basis, Debye-Ang):
   XX=           -109.4139   YY=           -102.6035   ZZ=            -74.1467
   XY=             12.7039   XZ=              0.0091   YZ=              0.0000
 Traceless Quadrupole moment (field-independent basis, Debye-Ang):
   XX=            -14.0258   YY=             -7.2155   ZZ=             21.2413
   XY=             12.7039   XZ=              0.0091   YZ=              0.0000
 Octapole moment (field-independent basis, Debye-Ang**2):
  XXX=           -149.0631  YYY=            -69.8931  ZZZ=             -0.0034  XYY=              1.5997
  XXY=             43.0757  XXZ=              0.0490  XZZ=              4.8009  YZZ=              2.7897
  YYZ=              0.0093  XYZ=             -0.0096
 Hexadecapole moment (field-independent basis, Debye-Ang**3):
 XXXX=          -2949.3590 YYYY=          -1737.5244 ZZZZ=            -58.3468 XXXY=            155.2315
 XXXZ=              0.2327 YYYX=             88.8826 YYYZ=              0.0354 ZZZX=             -0.0114
 ZZZY=             -0.0012 XXYY=           -623.1663 XXZZ=           -380.9874 YYZZ=           -231.2062
 XXYZ=             -0.0464 YYXZ=              0.0001 ZZXY=             -6.6749
 N-N= 6.941256663127D+02 E-N=-2.710774333381D+03  KE= 5.547819886902D+02
 1\1\GINC-N052\FOpt\RB3LYP\STO-3G\C12H5N2(1-)\R2532\15-Jun-2021\0\\#N B
 3LYP/STO-3G OPT\\2Naph\\-1,1\N,6.7066558411,5.0276228952,-0.8915565329
 \C,6.9575261924,3.8979954734,-0.5752968424\C,7.496951121,1.5651373643,
 -1.2770385199\C,7.2657293702,2.5020206999,-0.2017525518\C,7.2978245008
 ,2.2437107591,1.2090883532\C,7.578738457,0.9576922422,1.6950724904\C,7
 .8371362534,-0.1084115233,0.7349037783\C,7.7878058403,0.2265896076,-0.
 6787706726\C,8.0496342619,-0.8572800302,-1.5950629114\C,8.3345271062,-
 2.153682267,-1.1758594256\C,8.3757682942,-2.4514279937,0.2183836332\C,
 8.1324973233,-1.4509977469,1.1519530181\N,7.6335032985,0.4969615664,4.
 3096899084\C,7.609830563,0.7001784601,3.1264986887\H,7.1019095047,3.05
 22429566,1.9309878853\H,8.016173439,-0.6201515303,-2.6685601352\H,8.52
 79889129,-2.9499720965,-1.906311721\H,8.6004202353,-3.4738280912,0.551
 3846596\H,8.1635494848,-1.6770607457,2.2269768978\\Version=ES64L-G09Re
 vD.01\State=1-A\HF=-562.5277094\RMSD=6.335e-09\RMSF=2.349e-05\Dipole=0
 .4734546,-2.1217118,0.350531\Quadrupole=14.6709338,-7.5712341,-7.09969
 97,5.1034695,-1.7408679,9.5973083\PG=C01 [X(C12H5N2)]\\@


 IT IS NOT EASY TO DESCRIBE
     THE SEA WITH THE MOUTH

                   -- KOKYU
 Job cpu time:       0 days  0 hours  4 minutes 25.9 seconds.
 File lengths (MBytes):  RWF=      5 Int=      0 D2E=      0 Chk=      2 Scr=      1
 Normal termination of Gaussian 09 at Tue Jun 15 11:13:23 2021.
