 Entering Gaussian System, Link 0=/usr/local/apps//g09/g09
 Input=20.com
 Output=20.out
 Initial command:
 /usr/local/apps//g09/l1.exe "/tmp/bnp.472651.sequoia/Gau-26998.inp" -scrdir="/tmp/bnp.472651.sequoia/"
 Entering Link 1 = /usr/local/apps//g09/l1.exe PID=     27001.
  
 Copyright (c) 1988,1990,1992,1993,1995,1998,2003,2009,2013,
            Gaussian, Inc.  All Rights Reserved.
  
 This is part of the Gaussian(R) 09 program.  It is based on
 the Gaussian(R) 03 system (copyright 2003, Gaussian, Inc.),
 the Gaussian(R) 98 system (copyright 1998, Gaussian, Inc.),
 the Gaussian(R) 94 system (copyright 1995, Gaussian, Inc.),
 the Gaussian 92(TM) system (copyright 1992, Gaussian, Inc.),
 the Gaussian 90(TM) system (copyright 1990, Gaussian, Inc.),
 the Gaussian 88(TM) system (copyright 1988, Gaussian, Inc.),
 the Gaussian 86(TM) system (copyright 1986, Carnegie Mellon
 University), and the Gaussian 82(TM) system (copyright 1983,
 Carnegie Mellon University). Gaussian is a federally registered
 trademark of Gaussian, Inc.
  
 This software contains proprietary and confidential information,
 including trade secrets, belonging to Gaussian, Inc.
  
 This software is provided under written license and may be
 used, copied, transmitted, or stored only in accord with that
 written license.
  
 The following legend is applicable only to US Government
 contracts under FAR:
  
                    RESTRICTED RIGHTS LEGEND
  
 Use, reproduction and disclosure by the US Government is
 subject to restrictions as set forth in subparagraphs (a)
 and (c) of the Commercial Computer Software - Restricted
 Rights clause in FAR 52.227-19.
  
 Gaussian, Inc.
 340 Quinnipiac St., Bldg. 40, Wallingford CT 06492
  
  
 ---------------------------------------------------------------
 Warning -- This program may not be used in any manner that
 competes with the business of Gaussian, Inc. or will provide
 assistance to any competitor of Gaussian, Inc.  The licensee
 of this program is prohibited from giving any competitor of
 Gaussian, Inc. access to this program.  By using this program,
 the user acknowledges that Gaussian, Inc. is engaged in the
 business of creating and licensing software in the field of
 computational chemistry and represents and warrants to the
 licensee that it is not a competitor of Gaussian, Inc. and that
 it will not use this program in any manner prohibited above.
 ---------------------------------------------------------------
  

 Cite this work as:
 Gaussian 09, Revision D.01,
 M. J. Frisch, G. W. Trucks, H. B. Schlegel, G. E. Scuseria, 
 M. A. Robb, J. R. Cheeseman, G. Scalmani, V. Barone, B. Mennucci, 
 G. A. Petersson, H. Nakatsuji, M. Caricato, X. Li, H. P. Hratchian, 
 A. F. Izmaylov, J. Bloino, G. Zheng, J. L. Sonnenberg, M. Hada, 
 M. Ehara, K. Toyota, R. Fukuda, J. Hasegawa, M. Ishida, T. Nakajima, 
 Y. Honda, O. Kitao, H. Nakai, T. Vreven, J. A. Montgomery, Jr., 
 J. E. Peralta, F. Ogliaro, M. Bearpark, J. J. Heyd, E. Brothers, 
 K. N. Kudin, V. N. Staroverov, T. Keith, R. Kobayashi, J. Normand, 
 K. Raghavachari, A. Rendell, J. C. Burant, S. S. Iyengar, J. Tomasi, 
 M. Cossi, N. Rega, J. M. Millam, M. Klene, J. E. Knox, J. B. Cross, 
 V. Bakken, C. Adamo, J. Jaramillo, R. Gomperts, R. E. Stratmann, 
 O. Yazyev, A. J. Austin, R. Cammi, C. Pomelli, J. W. Ochterski, 
 R. L. Martin, K. Morokuma, V. G. Zakrzewski, G. A. Voth, 
 P. Salvador, J. J. Dannenberg, S. Dapprich, A. D. Daniels, 
 O. Farkas, J. B. Foresman, J. V. Ortiz, J. Cioslowski, 
 and D. J. Fox, Gaussian, Inc., Wallingford CT, 2013.
 
 ******************************************
 Gaussian 09:  ES64L-G09RevD.01 24-Apr-2013
                15-Jun-2021 
 ******************************************
 -------------------
 #N B3LYP/STO-3G OPT
 -------------------
 1/14=-1,18=20,19=15,26=3,38=1/1,3;
 2/9=110,12=2,17=6,18=5,40=1/2;
 3/6=3,11=2,16=1,25=1,30=1,71=1,74=-5/1,2,3;
 4//1;
 5/5=2,38=5/2;
 6/7=2,8=2,9=2,10=2,28=1/1;
 7//1,2,3,16;
 1/14=-1,18=20,19=15,26=3/3(2);
 2/9=110/2;
 99//99;
 2/9=110/2;
 3/6=3,11=2,16=1,25=1,30=1,71=1,74=-5/1,2,3;
 4/5=5,16=3,69=1/1;
 5/5=2,38=5/2;
 7//1,2,3,16;
 1/14=-1,18=20,19=15,26=3/3(-5);
 2/9=110/2;
 6/7=2,8=2,9=2,10=2,19=2,28=1/1;
 99/9=1/99;
 -----
 2Naph
 -----
 Symbolic Z-matrix:
 Charge = -1 Multiplicity = 1
 N                     3.59013  -0.47834  -1.46804 
 C                     4.39274  -0.23922  -0.67136 
 C                     5.24606   0.90268   1.37327 
 C                     5.45699   0.08699   0.24085 
 C                     6.74767  -0.34373  -0.0675 
 C                     7.82368   0.15274   0.6439 
 C                     7.64761   1.05763   1.68771 
 C                     6.34119   1.40179   2.13656 
 C                     6.26168   2.25591   3.27463 
 C                     7.41721   2.85713   3.80392 
 C                     8.66798   2.57786   3.2661 
 C                     8.77924   1.64249   2.24513 
 N                     4.07363   2.70701   4.5985 
 C                     5.02885   2.50744   3.96901 
 H                     4.23024   1.20785   1.61418 
 H                     6.93459  -1.01498  -0.90343 
 H                     7.34742   3.55126   4.6413 
 H                     9.55724   3.06999   3.65033 
 H                     9.76657   1.39847   1.85522 
 

 GradGradGradGradGradGradGradGradGradGradGradGradGradGradGradGradGradGrad
 Berny optimization.
 Initialization pass.
                           ----------------------------
                           !    Initial Parameters    !
                           ! (Angstroms and Degrees)  !
 --------------------------                            --------------------------
 ! Name  Definition              Value          Derivative Info.                !
 --------------------------------------------------------------------------------
 ! R1    R(1,2)                  1.1559         estimate D2E/DX2                !
 ! R2    R(2,4)                  1.4392         estimate D2E/DX2                !
 ! R3    R(3,4)                  1.4115         estimate D2E/DX2                !
 ! R4    R(3,8)                  1.4251         estimate D2E/DX2                !
 ! R5    R(3,15)                 1.0877         estimate D2E/DX2                !
 ! R6    R(4,5)                  1.3952         estimate D2E/DX2                !
 ! R7    R(5,6)                  1.3822         estimate D2E/DX2                !
 ! R8    R(5,16)                 1.0883         estimate D2E/DX2                !
 ! R9    R(6,7)                  1.3926         estimate D2E/DX2                !
 ! R10   R(7,8)                  1.4236         estimate D2E/DX2                !
 ! R11   R(7,12)                 1.3905         estimate D2E/DX2                !
 ! R12   R(8,9)                  1.4251         estimate D2E/DX2                !
 ! R13   R(9,10)                 1.406          estimate D2E/DX2                !
 ! R14   R(9,14)                 1.4371         estimate D2E/DX2                !
 ! R15   R(10,11)                1.3898         estimate D2E/DX2                !
 ! R16   R(10,17)                1.0899         estimate D2E/DX2                !
 ! R17   R(11,12)                1.3891         estimate D2E/DX2                !
 ! R18   R(11,18)                1.0866         estimate D2E/DX2                !
 ! R19   R(12,19)                1.0892         estimate D2E/DX2                !
 ! R20   R(13,14)                1.1613         estimate D2E/DX2                !
 ! A1    A(4,3,8)              121.1488         estimate D2E/DX2                !
 ! A2    A(4,3,15)             118.647          estimate D2E/DX2                !
 ! A3    A(8,3,15)             120.0514         estimate D2E/DX2                !
 ! A4    A(2,4,3)              121.9395         estimate D2E/DX2                !
 ! A5    A(2,4,5)              118.2976         estimate D2E/DX2                !
 ! A6    A(3,4,5)              119.6029         estimate D2E/DX2                !
 ! A7    A(4,5,6)              119.7061         estimate D2E/DX2                !
 ! A8    A(4,5,16)             121.2717         estimate D2E/DX2                !
 ! A9    A(6,5,16)             118.8949         estimate D2E/DX2                !
 ! A10   A(5,6,7)              121.3832         estimate D2E/DX2                !
 ! A11   A(6,7,8)              120.626          estimate D2E/DX2                !
 ! A12   A(6,7,12)             118.0926         estimate D2E/DX2                !
 ! A13   A(8,7,12)             121.2504         estimate D2E/DX2                !
 ! A14   A(3,8,7)              116.8496         estimate D2E/DX2                !
 ! A15   A(3,8,9)              126.4928         estimate D2E/DX2                !
 ! A16   A(7,8,9)              116.6068         estimate D2E/DX2                !
 ! A17   A(8,9,10)             120.7331         estimate D2E/DX2                !
 ! A18   A(8,9,14)             122.5885         estimate D2E/DX2                !
 ! A19   A(10,9,14)            116.6342         estimate D2E/DX2                !
 ! A20   A(9,10,11)            120.5319         estimate D2E/DX2                !
 ! A21   A(9,10,17)            120.5928         estimate D2E/DX2                !
 ! A22   A(11,10,17)           118.8752         estimate D2E/DX2                !
 ! A23   A(10,11,12)           119.4581         estimate D2E/DX2                !
 ! A24   A(10,11,18)           120.5757         estimate D2E/DX2                !
 ! A25   A(12,11,18)           119.9557         estimate D2E/DX2                !
 ! A26   A(7,12,11)            120.843          estimate D2E/DX2                !
 ! A27   A(7,12,19)            119.999          estimate D2E/DX2                !
 ! A28   A(11,12,19)           119.1143         estimate D2E/DX2                !
 ! A29   L(1,2,4,16,-1)        177.0846         estimate D2E/DX2                !
 ! A30   L(9,14,13,1,-1)       183.4458         estimate D2E/DX2                !
 ! A31   L(1,2,4,16,-2)        176.2602         estimate D2E/DX2                !
 ! A32   L(9,14,13,1,-2)       177.9791         estimate D2E/DX2                !
 ! D1    D(8,3,4,2)           -169.234          estimate D2E/DX2                !
 ! D2    D(8,3,4,5)              6.0888         estimate D2E/DX2                !
 ! D3    D(15,3,4,2)             6.2737         estimate D2E/DX2                !
 ! D4    D(15,3,4,5)          -178.4036         estimate D2E/DX2                !
 ! D5    D(4,3,8,7)              1.074          estimate D2E/DX2                !
 ! D6    D(4,3,8,9)            178.3803         estimate D2E/DX2                !
 ! D7    D(15,3,8,7)          -174.3712         estimate D2E/DX2                !
 ! D8    D(15,3,8,9)             2.9352         estimate D2E/DX2                !
 ! D9    D(2,4,5,6)            168.1353         estimate D2E/DX2                !
 ! D10   D(2,4,5,16)            -7.7169         estimate D2E/DX2                !
 ! D11   D(3,4,5,6)             -7.3572         estimate D2E/DX2                !
 ! D12   D(3,4,5,16)           176.7906         estimate D2E/DX2                !
 ! D13   D(4,5,6,7)              1.3964         estimate D2E/DX2                !
 ! D14   D(16,5,6,7)           177.3472         estimate D2E/DX2                !
 ! D15   D(5,6,7,8)              6.0052         estimate D2E/DX2                !
 ! D16   D(5,6,7,12)          -171.9945         estimate D2E/DX2                !
 ! D17   D(6,7,8,3)             -7.0518         estimate D2E/DX2                !
 ! D18   D(6,7,8,9)            175.37           estimate D2E/DX2                !
 ! D19   D(12,7,8,3)           170.8841         estimate D2E/DX2                !
 ! D20   D(12,7,8,9)            -6.6941         estimate D2E/DX2                !
 ! D21   D(6,7,12,11)          178.3726         estimate D2E/DX2                !
 ! D22   D(6,7,12,19)            0.8            estimate D2E/DX2                !
 ! D23   D(8,7,12,11)            0.386          estimate D2E/DX2                !
 ! D24   D(8,7,12,19)         -177.1867         estimate D2E/DX2                !
 ! D25   D(3,8,9,10)          -169.2908         estimate D2E/DX2                !
 ! D26   D(3,8,9,14)            13.2086         estimate D2E/DX2                !
 ! D27   D(7,8,9,10)             8.0213         estimate D2E/DX2                !
 ! D28   D(7,8,9,14)          -169.4793         estimate D2E/DX2                !
 ! D29   D(8,9,10,11)           -3.1379         estimate D2E/DX2                !
 ! D30   D(8,9,10,17)          176.7449         estimate D2E/DX2                !
 ! D31   D(14,9,10,11)         174.5063         estimate D2E/DX2                !
 ! D32   D(14,9,10,17)          -5.611          estimate D2E/DX2                !
 ! D33   D(9,10,11,12)          -3.4591         estimate D2E/DX2                !
 ! D34   D(9,10,11,18)         177.7208         estimate D2E/DX2                !
 ! D35   D(17,10,11,12)        176.6562         estimate D2E/DX2                !
 ! D36   D(17,10,11,18)         -2.1639         estimate D2E/DX2                !
 ! D37   D(10,11,12,7)           4.8471         estimate D2E/DX2                !
 ! D38   D(10,11,12,19)       -177.559          estimate D2E/DX2                !
 ! D39   D(18,11,12,7)        -176.3254         estimate D2E/DX2                !
 ! D40   D(18,11,12,19)          1.2685         estimate D2E/DX2                !
 --------------------------------------------------------------------------------
 Trust Radius=3.00D-01 FncErr=1.00D-07 GrdErr=1.00D-06
 Number of steps in this run=    102 maximum allowed number of steps=    114.
 GradGradGradGradGradGradGradGradGradGradGradGradGradGradGradGradGradGrad

                          Input orientation:                          
 ---------------------------------------------------------------------
 Center     Atomic      Atomic             Coordinates (Angstroms)
 Number     Number       Type             X           Y           Z
 ---------------------------------------------------------------------
      1          7           0        3.590130   -0.478340   -1.468040
      2          6           0        4.392740   -0.239220   -0.671360
      3          6           0        5.246060    0.902680    1.373270
      4          6           0        5.456990    0.086990    0.240850
      5          6           0        6.747670   -0.343730   -0.067500
      6          6           0        7.823680    0.152740    0.643900
      7          6           0        7.647610    1.057630    1.687710
      8          6           0        6.341190    1.401790    2.136560
      9          6           0        6.261680    2.255910    3.274630
     10          6           0        7.417210    2.857130    3.803920
     11          6           0        8.667980    2.577860    3.266100
     12          6           0        8.779240    1.642490    2.245130
     13          7           0        4.073630    2.707010    4.598500
     14          6           0        5.028850    2.507440    3.969010
     15          1           0        4.230240    1.207850    1.614180
     16          1           0        6.934590   -1.014980   -0.903430
     17          1           0        7.347420    3.551260    4.641300
     18          1           0        9.557240    3.069990    3.650330
     19          1           0        9.766570    1.398470    1.855220
 ---------------------------------------------------------------------
                    Distance matrix (angstroms):
                    1          2          3          4          5
     1  N    0.000000
     2  C    1.155881   0.000000
     3  C    3.566842   2.492509   0.000000
     4  C    2.593274   1.439155   1.411459   0.000000
     5  C    3.456833   2.433365   2.425735   1.395154   0.000000
     6  C    4.772997   3.695252   2.781819   2.401665   1.382161
     7  C    5.364802   4.223886   2.426999   2.798993   2.419600
     8  C    4.908804   3.791278   1.425143   2.470673   2.840765
     9  C    6.091488   5.028861   2.545169   3.815175   4.261942
    10  C    7.318843   6.225989   3.800240   4.920529   5.067710
    11  C    7.585315   6.458886   4.254241   5.066264   4.830752
    12  C    6.724018   5.593579   3.713599   4.180199   3.663414
    13  N    6.868998   6.045951   3.877152   5.269469   6.182965
    14  C    6.367598   5.429716   3.059461   4.465541   5.232296
    15  H    3.571142   2.710002   1.087684   2.155755   3.401897
    16  H    3.433974   2.667707   3.422268   2.169566   1.088253
    17  H    8.226721   7.163953   4.702203   5.910910   6.140313
    18  H    8.625240   7.503328   5.335589   6.110229   5.776628
    19  H    7.260502   6.159844   4.573084   4.785253   3.980687
                    6          7          8          9         10
     6  C    0.000000
     7  C    1.392611   0.000000
     8  C    2.446617   1.423603   0.000000
     9  C    3.712669   2.423838   1.425148   0.000000
    10  C    4.179075   2.787405   2.460878   1.406010   0.000000
    11  C    3.670147   2.417348   2.841294   2.427757   1.389844
    12  C    2.386711   1.390455   2.452307   2.788236   2.400063
    13  N    6.018806   4.895558   3.592572   2.596861   3.439974
    14  C    4.940855   3.763533   2.510492   1.437115   2.419463
    15  H    3.868787   3.421460   2.183255   2.825292   4.203792
    16  H    2.132670   3.393835   3.928669   5.348618   6.114352
    17  H    5.268393   3.877112   3.450571   2.173603   1.089905
    18  H    4.533674   3.398258   3.926496   3.415347   2.156068
    19  H    2.606523   2.152725   3.436916   3.877394   3.382989
                   11         12         13         14         15
    11  C    0.000000
    12  C    1.389128   0.000000
    13  N    4.785397   5.367897   0.000000
    14  C    3.707062   4.217265   1.161263   0.000000
    15  H    4.929432   4.613070   3.343378   2.805697   0.000000
    16  H    5.770452   4.514234   7.232533   6.307136   4.311942
    17  H    2.140692   3.381589   3.381167   2.630076   4.936784
    18  H    1.086558   2.148867   5.576805   4.574313   5.999200
    19  H    2.142065   1.089218   6.453482   5.305084   5.544852
                   16         17         18         19
    16  H    0.000000
    17  H    7.194790   0.000000
    18  H    6.655975   2.469200   0.000000
    19  H    4.631954   4.271889   2.461751   0.000000
 Stoichiometry    C12H5N2(1-)
 Framework group  C1[X(C12H5N2)]
 Deg. of freedom    51
 Full point group                 C1      NOp   1
 Largest Abelian subgroup         C1      NOp   1
 Largest concise Abelian subgroup C1      NOp   1
                         Standard orientation:                         
 ---------------------------------------------------------------------
 Center     Atomic      Atomic             Coordinates (Angstroms)
 Number     Number       Type             X           Y           Z
 ---------------------------------------------------------------------
      1          7           0        4.418730    1.073642    0.395091
      2          6           0        3.377537    0.637717    0.146197
      3          6           0        0.893373    0.738143   -0.031129
      4          6           0        2.103389    0.014470   -0.097273
      5          6           0        2.071255   -1.364038   -0.309728
      6          6           0        0.860340   -2.030356   -0.301012
      7          6           0       -0.340237   -1.350383   -0.112292
      8          6           0       -0.366150    0.071572   -0.048913
      9          6           0       -1.650085    0.683040    0.044177
     10          6           0       -2.804403   -0.095730    0.238935
     11          6           0       -2.721969   -1.482536    0.279446
     12          6           0       -1.498795   -2.101073    0.053765
     13          7           0       -2.070383    3.226618   -0.267662
     14          6           0       -1.845821    2.098871   -0.105523
     15          1           0        0.937333    1.815899    0.108750
     16          1           0        2.987968   -1.940620   -0.416898
     17          1           0       -3.778416    0.377457    0.362569
     18          1           0       -3.607558   -2.083626    0.466609
     19          1           0       -1.448363   -3.189102    0.047065
 ---------------------------------------------------------------------
 Rotational constants (GHZ):      1.1618240      0.5446125      0.3753828
 Standard basis: STO-3G (5D, 7F)
 There are    75 symmetry adapted cartesian basis functions of A   symmetry.
 There are    75 symmetry adapted basis functions of A   symmetry.
    75 basis functions,   225 primitive gaussians,    75 cartesian basis functions
    46 alpha electrons       46 beta electrons
       nuclear repulsion energy       706.7120652313 Hartrees.
 NAtoms=   19 NActive=   19 NUniq=   19 SFac= 1.00D+00 NAtFMM=   60 NAOKFM=F Big=F
 Integral buffers will be    131072 words long.
 Raffenetti 2 integral format.
 Two-electron integral symmetry is turned on.
 One-electron integrals computed using PRISM.
 NBasis=    75 RedAO= T EigKep=  1.53D-01  NBF=    75
 NBsUse=    75 1.00D-06 EigRej= -1.00D+00 NBFU=    75
 ExpMin= 1.69D-01 ExpMax= 9.91D+01 ExpMxC= 9.91D+01 IAcc=1 IRadAn=         1 AccDes= 0.00D+00
 Harris functional with IExCor=  402 and IRadAn=       1 diagonalized for initial guess.
 HarFok:  IExCor=  402 AccDes= 0.00D+00 IRadAn=         1 IDoV= 1 UseB2=F ITyADJ=14
 ICtDFT=  3500011 ScaDFX=  1.000000  1.000000  1.000000  1.000000
 FoFCou: FMM=F IPFlag=           0 FMFlag=      100000 FMFlg1=           0
         NFxFlg=           0 DoJE=T BraDBF=F KetDBF=T FulRan=T
         wScrn=  0.000000 ICntrl=     500 IOpCl=  0 I1Cent=   200000004 NGrid=           0
         NMat0=    1 NMatS0=      1 NMatT0=    0 NMatD0=    1 NMtDS0=    0 NMtDT0=    0
 Petite list used in FoFCou.
 Keep R1 ints in memory in canonical form, NReq=4993994.
 Requested convergence on RMS density matrix=1.00D-08 within 128 cycles.
 Requested convergence on MAX density matrix=1.00D-06.
 Requested convergence on             energy=1.00D-06.
 No special actions if energy rises.
 Integral accuracy reduced to 1.0D-05 until final iterations.
 Initial convergence to 1.0D-05 achieved.  Increase integral accuracy.
 SCF Done:  E(RB3LYP) =  -562.477141073     A.U. after   23 cycles
            NFock= 23  Conv=0.87D-08     -V/T= 2.0128

 **********************************************************************

            Population analysis using the SCF density.

 **********************************************************************

 Orbital symmetries:
       Occupied  (A) (A) (A) (A) (A) (A) (A) (A) (A) (A) (A) (A)
                 (A) (A) (A) (A) (A) (A) (A) (A) (A) (A) (A) (A)
                 (A) (A) (A) (A) (A) (A) (A) (A) (A) (A) (A) (A)
                 (A) (A) (A) (A) (A) (A) (A) (A) (A) (A)
       Virtual   (A) (A) (A) (A) (A) (A) (A) (A) (A) (A) (A) (A)
                 (A) (A) (A) (A) (A) (A) (A) (A) (A) (A) (A) (A)
                 (A) (A) (A) (A) (A)
 The electronic state is 1-A.
 Alpha  occ. eigenvalues --  -13.98254 -13.96652  -9.89501  -9.89009  -9.88178
 Alpha  occ. eigenvalues --   -9.87446  -9.87165  -9.86372  -9.86272  -9.86187
 Alpha  occ. eigenvalues --   -9.83878  -9.83530  -9.80172  -9.66832  -0.73656
 Alpha  occ. eigenvalues --   -0.72450  -0.68024  -0.62692  -0.58538  -0.55942
 Alpha  occ. eigenvalues --   -0.50547  -0.46257  -0.42432  -0.41073  -0.34726
 Alpha  occ. eigenvalues --   -0.31495  -0.31111  -0.28206  -0.25405  -0.23741
 Alpha  occ. eigenvalues --   -0.21913  -0.21095  -0.19762  -0.17880  -0.16751
 Alpha  occ. eigenvalues --   -0.15423  -0.14588  -0.14032  -0.13546  -0.12802
 Alpha  occ. eigenvalues --   -0.11479  -0.10649  -0.06734  -0.03766   0.01925
 Alpha  occ. eigenvalues --    0.13060
 Alpha virt. eigenvalues --    0.16878   0.22144   0.26361   0.28058   0.29934
 Alpha virt. eigenvalues --    0.30401   0.36405   0.39327   0.45484   0.48263
 Alpha virt. eigenvalues --    0.49490   0.51705   0.55044   0.58295   0.60592
 Alpha virt. eigenvalues --    0.61723   0.64722   0.65139   0.71888   0.72455
 Alpha virt. eigenvalues --    0.74179   0.78293   0.82113   0.86183   0.88710
 Alpha virt. eigenvalues --    0.98043   1.00033   1.14715   1.17214
          Condensed to atoms (all electrons):
               1          2          3          4          5          6
     1  N    6.595268   0.686956  -0.000032  -0.011445  -0.000300  -0.000002
     2  C    0.686956   4.908790  -0.029890   0.419049  -0.031591   0.001208
     3  C   -0.000032  -0.029890   4.862262   0.501092  -0.033546  -0.013759
     4  C   -0.011445   0.419049   0.501092   4.789749   0.462401  -0.027838
     5  C   -0.000300  -0.031591  -0.033546   0.462401   4.889938   0.499179
     6  C   -0.000002   0.001208  -0.013759  -0.027838   0.499179   5.395778
     7  C    0.000000   0.000046  -0.033388  -0.011872  -0.030097   0.454412
     8  C   -0.000001   0.000826   0.492874  -0.025679  -0.010795  -0.028433
     9  C    0.000000  -0.000003  -0.026686   0.000744   0.000040   0.001058
    10  C    0.000000   0.000000   0.000670  -0.000006   0.000001   0.000040
    11  C    0.000000   0.000000   0.000043   0.000001  -0.000019   0.001204
    12  C    0.000000   0.000001   0.000932   0.000001   0.001477  -0.044907
    13  N    0.000000   0.000000  -0.000024   0.000000   0.000000   0.000000
    14  C    0.000000   0.000000  -0.003008   0.000007  -0.000001  -0.000010
    15  H    0.000071  -0.003612   0.388692  -0.026466   0.001356   0.000077
    16  H    0.000095  -0.003654   0.001258  -0.032561   0.389261  -0.036224
    17  H    0.000000   0.000000  -0.000015   0.000000   0.000000   0.000001
    18  H    0.000000   0.000000   0.000001   0.000000   0.000000  -0.000029
    19  H    0.000000   0.000000  -0.000018   0.000000   0.000052  -0.002840
               7          8          9         10         11         12
     1  N    0.000000  -0.000001   0.000000   0.000000   0.000000   0.000000
     2  C    0.000046   0.000826  -0.000003   0.000000   0.000000   0.000001
     3  C   -0.033388   0.492874  -0.026686   0.000670   0.000043   0.000932
     4  C   -0.011872  -0.025679   0.000744  -0.000006   0.000001   0.000001
     5  C   -0.030097  -0.010795   0.000040   0.000001  -0.000019   0.001477
     6  C    0.454412  -0.028433   0.001058   0.000040   0.001204  -0.044907
     7  C    4.825324   0.443285  -0.028495  -0.011570  -0.030993   0.489108
     8  C    0.443285   4.809609   0.457621  -0.028374  -0.008449  -0.034881
     9  C   -0.028495   0.457621   4.780909   0.506117  -0.030561  -0.011397
    10  C   -0.011570  -0.028374   0.506117   4.820099   0.497683  -0.030699
    11  C   -0.030993  -0.008449  -0.030561   0.497683   4.840969   0.506934
    12  C    0.489108  -0.034881  -0.011397  -0.030699   0.506934   4.829132
    13  N   -0.000002   0.000021  -0.011503  -0.000345   0.000000   0.000000
    14  C    0.000951  -0.027507   0.425443  -0.035413   0.001066   0.000008
    15  H    0.001345  -0.025026  -0.003038   0.000007   0.000000  -0.000022
    16  H    0.002087  -0.000031   0.000001   0.000000   0.000000  -0.000004
    17  H    0.000047   0.001260  -0.024810   0.389701  -0.026901   0.001569
    18  H    0.001529   0.000007   0.001450  -0.026392   0.390991  -0.026326
    19  H   -0.024944   0.001512   0.000031   0.001574  -0.027677   0.389375
              13         14         15         16         17         18
     1  N    0.000000   0.000000   0.000071   0.000095   0.000000   0.000000
     2  C    0.000000   0.000000  -0.003612  -0.003654   0.000000   0.000000
     3  C   -0.000024  -0.003008   0.388692   0.001258  -0.000015   0.000001
     4  C    0.000000   0.000007  -0.026466  -0.032561   0.000000   0.000000
     5  C    0.000000  -0.000001   0.001356   0.389261   0.000000   0.000000
     6  C    0.000000  -0.000010   0.000077  -0.036224   0.000001  -0.000029
     7  C   -0.000002   0.000951   0.001345   0.002087   0.000047   0.001529
     8  C    0.000021  -0.027507  -0.025026  -0.000031   0.001260   0.000007
     9  C   -0.011503   0.425443  -0.003038   0.000001  -0.024810   0.001450
    10  C   -0.000345  -0.035413   0.000007   0.000000   0.389701  -0.026392
    11  C    0.000000   0.001066   0.000000   0.000000  -0.026901   0.390991
    12  C    0.000000   0.000008  -0.000022  -0.000004   0.001569  -0.026326
    13  N    6.586152   0.684360  -0.000050   0.000000   0.000039   0.000000
    14  C    0.684360   4.901620   0.000984   0.000000  -0.004021  -0.000022
    15  H   -0.000050   0.000984   0.609579  -0.000039  -0.000001   0.000000
    16  H    0.000000   0.000000  -0.000039   0.646409   0.000000   0.000000
    17  H    0.000039  -0.004021  -0.000001   0.000000   0.604739  -0.004025
    18  H    0.000000  -0.000022   0.000000   0.000000  -0.004025   0.616215
    19  H    0.000000   0.000001   0.000001  -0.000006  -0.000041  -0.004027
              19
     1  N    0.000000
     2  C    0.000000
     3  C   -0.000018
     4  C    0.000000
     5  C    0.000052
     6  C   -0.002840
     7  C   -0.024944
     8  C    0.001512
     9  C    0.000031
    10  C    0.001574
    11  C   -0.027677
    12  C    0.389375
    13  N    0.000000
    14  C    0.000001
    15  H    0.000001
    16  H   -0.000006
    17  H   -0.000041
    18  H   -0.004027
    19  H    0.597684
 Mulliken charges:
               1
     1  N   -0.270609
     2  C    0.051875
     3  C   -0.107459
     4  C   -0.037177
     5  C   -0.137357
     6  C   -0.198915
     7  C   -0.046774
     8  C   -0.017838
     9  C   -0.036921
    10  C   -0.083091
    11  C   -0.114288
    12  C   -0.070299
    13  N   -0.258647
    14  C    0.055541
    15  H    0.056143
    16  H    0.033405
    17  H    0.062459
    18  H    0.050627
    19  H    0.069324
 Sum of Mulliken charges =  -1.00000
 Mulliken charges with hydrogens summed into heavy atoms:
               1
     1  N   -0.270609
     2  C    0.051875
     3  C   -0.051316
     4  C   -0.037177
     5  C   -0.103951
     6  C   -0.198915
     7  C   -0.046774
     8  C   -0.017838
     9  C   -0.036921
    10  C   -0.020632
    11  C   -0.063661
    12  C   -0.000975
    13  N   -0.258647
    14  C    0.055541
 Electronic spatial extent (au):  <R**2>=           2739.2740
 Charge=             -1.0000 electrons
 Dipole moment (field-independent basis, Debye):
    X=             -4.5270    Y=             -0.8949    Z=              0.2782  Tot=              4.6230
 Quadrupole moment (field-independent basis, Debye-Ang):
   XX=           -108.8981   YY=           -100.8397   ZZ=            -74.5814
   XY=              5.1366   XZ=             -3.0037   YZ=             -0.4040
 Traceless Quadrupole moment (field-independent basis, Debye-Ang):
   XX=            -14.1250   YY=             -6.0666   ZZ=             20.1917
   XY=              5.1366   XZ=             -3.0037   YZ=             -0.4040
 Octapole moment (field-independent basis, Debye-Ang**2):
  XXX=           -128.0068  YYY=            -25.4443  ZZZ=              0.1296  XYY=             15.1339
  XXY=            -46.9072  XXZ=            -10.1951  XZZ=              0.9682  YZZ=              3.7285
  YYZ=              8.1622  XYZ=             -8.2655
 Hexadecapole moment (field-independent basis, Debye-Ang**3):
 XXXX=          -2951.9654 YYYY=          -1384.7331 ZZZZ=            -79.2582 XXXY=           -142.7824
 XXXZ=            -75.3634 YYYX=            156.5223 YYYZ=              8.9877 ZZZX=              6.2632
 ZZZY=             -1.1446 XXYY=           -688.7637 XXZZ=           -407.1680 YYZZ=           -201.8126
 XXYZ=            -14.1074 YYXZ=            -13.1883 ZZXY=             -2.4863
 N-N= 7.067120652313D+02 E-N=-2.735791362619D+03  KE= 5.553618359187D+02
 Calling FoFJK, ICntrl=      2127 FMM=F ISym2X=0 I1Cent= 0 IOpClX= 0 NMat=1 NMatS=1 NMatT=0.
 ***** Axes restored to original set *****
 -------------------------------------------------------------------
 Center     Atomic                   Forces (Hartrees/Bohr)
 Number     Number              X              Y              Z
 -------------------------------------------------------------------
      1        7          -0.083736579   -0.028884522   -0.081830283
      2        6           0.062671097    0.030290659    0.072822075
      3        6          -0.007204552    0.006870865    0.005048129
      4        6          -0.022858734    0.009701517    0.007861427
      5        6           0.032168894   -0.002271740    0.011938859
      6        6           0.055506349   -0.034852750   -0.048411788
      7        6          -0.013798972   -0.014016969   -0.009058740
      8        6          -0.025122830   -0.005169123   -0.007142892
      9        6          -0.001949054    0.014221455    0.019151400
     10        6          -0.012672868    0.004389206    0.003902244
     11        6           0.019897460   -0.001506083   -0.002170847
     12        6           0.022096879    0.025811828    0.015149552
     13        7          -0.086999163    0.018776493    0.053488830
     14        6           0.069036188   -0.016551098   -0.044609026
     15        1          -0.006334392    0.003440261    0.003523540
     16        1          -0.007095140   -0.011438080   -0.007031380
     17        1          -0.004505112    0.003096094    0.005862140
     18        1           0.005862471    0.003469158    0.005990706
     19        1           0.005038059   -0.005377171   -0.004483945
 -------------------------------------------------------------------
 Cartesian Forces:  Max     0.086999163 RMS     0.031169175

 GradGradGradGradGradGradGradGradGradGradGradGradGradGradGradGradGradGrad
 Berny optimization.
 FormGI is forming the generalized inverse of G from B-inverse, IUseBI=4.
 Internal  Forces:  Max     0.120515999 RMS     0.021935980
 Search for a local minimum.
 Step number   1 out of a maximum of  102
 All quantities printed in internal units (Hartrees-Bohrs-Radians)
 Mixed Optimization -- RFO/linear search
 Second derivative matrix not updated -- first step.
 ITU=  0
     Eigenvalues ---    0.01571   0.01571   0.01802   0.01833   0.01869
     Eigenvalues ---    0.01885   0.01959   0.02047   0.02070   0.02082
     Eigenvalues ---    0.02110   0.02208   0.02217   0.02225   0.02229
     Eigenvalues ---    0.02234   0.04850   0.04850   0.15952   0.15973
     Eigenvalues ---    0.15986   0.15997   0.16000   0.22078   0.23277
     Eigenvalues ---    0.23467   0.23482   0.24808   0.24917   0.24935
     Eigenvalues ---    0.24980   0.34824   0.34903   0.35015   0.35082
     Eigenvalues ---    0.35213   0.37638   0.39702   0.39964   0.39984
     Eigenvalues ---    0.40296   0.42526   0.43161   0.45277   0.45865
     Eigenvalues ---    0.46065   0.46193   0.47346   0.47932   1.26971
     Eigenvalues ---    1.30528
 RFO step:  Lambda=-6.35439278D-02 EMin= 1.57080556D-02
 Linear search not attempted -- first point.
 Maximum step size (   0.300) exceeded in Quadratic search.
    -- Step size scaled by   0.845
 Iteration  1 RMS(Cart)=  0.06735013 RMS(Int)=  0.00191363
 Iteration  2 RMS(Cart)=  0.00328701 RMS(Int)=  0.00035167
 Iteration  3 RMS(Cart)=  0.00000989 RMS(Int)=  0.00035158
 Iteration  4 RMS(Cart)=  0.00000000 RMS(Int)=  0.00035158
 Variable       Old X    -DE/DX   Delta X   Delta X   Delta X     New X
                                 (Linear)    (Quad)   (Total)
    R1        2.18430   0.12052   0.00000   0.07436   0.07436   2.25866
    R2        2.71961   0.02101   0.00000   0.03853   0.03853   2.75814
    R3        2.66727   0.00380   0.00000   0.00369   0.00342   2.67069
    R4        2.69313  -0.00545   0.00000  -0.01158  -0.01203   2.68110
    R5        2.05543   0.00766   0.00000   0.01562   0.01562   2.07104
    R6        2.63646   0.05532   0.00000   0.08784   0.08798   2.72444
    R7        2.61191   0.02147   0.00000   0.03463   0.03509   2.64699
    R8        2.05650   0.01119   0.00000   0.02285   0.02285   2.07935
    R9        2.63165   0.05894   0.00000   0.09599   0.09628   2.72793
   R10        2.69022   0.04786   0.00000   0.08639   0.08638   2.77660
   R11        2.62758   0.04525   0.00000   0.07308   0.07331   2.70089
   R12        2.69314   0.03078   0.00000   0.05374   0.05367   2.74681
   R13        2.65697   0.00625   0.00000   0.00848   0.00825   2.66522
   R14        2.71575   0.02009   0.00000   0.03662   0.03662   2.75238
   R15        2.62643   0.02966   0.00000   0.04515   0.04499   2.67141
   R16        2.05962   0.00676   0.00000   0.01387   0.01387   2.07350
   R17        2.62507   0.01824   0.00000   0.02894   0.02900   2.65408
   R18        2.05330   0.00849   0.00000   0.01725   0.01725   2.07054
   R19        2.05832   0.00738   0.00000   0.01510   0.01510   2.07342
   R20        2.19447   0.10378   0.00000   0.06575   0.06575   2.26021
    A1        2.11444  -0.00332   0.00000  -0.01880  -0.01972   2.09473
    A2        2.07078   0.00416   0.00000   0.01955   0.01989   2.09067
    A3        2.09529  -0.00069   0.00000   0.00086   0.00122   2.09652
    A4        2.12825  -0.01425   0.00000  -0.03480  -0.03474   2.09350
    A5        2.06468   0.00767   0.00000   0.02456   0.02459   2.08927
    A6        2.08746   0.00680   0.00000   0.01234   0.01186   2.09933
    A7        2.08927   0.01627   0.00000   0.04961   0.04999   2.13925
    A8        2.11659  -0.01708   0.00000  -0.05865  -0.05882   2.05777
    A9        2.07511   0.00084   0.00000   0.00930   0.00907   2.08418
   A10        2.11854  -0.03993   0.00000  -0.09814  -0.09713   2.02141
   A11        2.10532   0.01365   0.00000   0.03907   0.03895   2.14427
   A12        2.06110   0.00858   0.00000   0.01805   0.01781   2.07891
   A13        2.11622  -0.02220   0.00000  -0.05678  -0.05647   2.05975
   A14        2.03941   0.00642   0.00000   0.01378   0.01308   2.05248
   A15        2.20772  -0.01673   0.00000  -0.04469  -0.04434   2.16337
   A16        2.03517   0.01032   0.00000   0.03098   0.03135   2.06653
   A17        2.10719  -0.00166   0.00000  -0.00824  -0.00862   2.09857
   A18        2.13957  -0.00363   0.00000  -0.00785  -0.00766   2.13191
   A19        2.03565   0.00531   0.00000   0.01621   0.01640   2.05205
   A20        2.10368   0.00432   0.00000   0.00633   0.00585   2.10953
   A21        2.10474  -0.00648   0.00000  -0.01949  -0.01926   2.08548
   A22        2.07476   0.00216   0.00000   0.01317   0.01340   2.08817
   A23        2.08494   0.00310   0.00000   0.00659   0.00643   2.09137
   A24        2.10444  -0.00398   0.00000  -0.01249  -0.01241   2.09203
   A25        2.09362   0.00087   0.00000   0.00586   0.00593   2.09955
   A26        2.10911   0.00625   0.00000   0.02239   0.02249   2.13160
   A27        2.09438  -0.00743   0.00000  -0.02713  -0.02740   2.06697
   A28        2.07894   0.00130   0.00000   0.00590   0.00563   2.08457
   A29        3.09071  -0.00260   0.00000  -0.02766  -0.02766   3.06305
   A30        3.20173  -0.00539   0.00000  -0.04061  -0.04061   3.16113
   A31        3.07632   0.00730   0.00000   0.07783   0.07783   3.15415
   A32        3.10632   0.00468   0.00000   0.03525   0.03525   3.14157
    D1       -2.95369  -0.00425   0.00000  -0.03746  -0.03806  -2.99175
    D2        0.10627  -0.00072   0.00000  -0.00563  -0.00664   0.09963
    D3        0.10950  -0.00206   0.00000  -0.01382  -0.01385   0.09565
    D4       -3.11373   0.00147   0.00000   0.01800   0.01757  -3.09616
    D5        0.01874   0.00191   0.00000   0.02648   0.02649   0.04524
    D6        3.11332   0.00252   0.00000   0.02951   0.02975  -3.14011
    D7       -3.04335  -0.00052   0.00000   0.00171   0.00137  -3.04198
    D8        0.05123   0.00009   0.00000   0.00473   0.00463   0.05586
    D9        2.93451  -0.00123   0.00000  -0.00669  -0.00724   2.92727
   D10       -0.13469  -0.00183   0.00000  -0.01148  -0.01156  -0.14625
   D11       -0.12841  -0.00360   0.00000  -0.03460  -0.03582  -0.16423
   D12        3.08558  -0.00420   0.00000  -0.03939  -0.04014   3.04544
   D13        0.02437   0.00429   0.00000   0.04618   0.04556   0.06993
   D14        3.09529   0.00410   0.00000   0.04797   0.04716  -3.14073
   D15        0.10481  -0.00315   0.00000  -0.02270  -0.02219   0.08262
   D16       -3.00187  -0.00391   0.00000  -0.03251  -0.03243  -3.03430
   D17       -0.12308  -0.00234   0.00000  -0.01856  -0.01806  -0.14113
   D18        3.06078  -0.00214   0.00000  -0.01923  -0.01906   3.04172
   D19        2.98249  -0.00090   0.00000  -0.00685  -0.00645   2.97604
   D20       -0.11683  -0.00071   0.00000  -0.00752  -0.00745  -0.12429
   D21        3.11319   0.00355   0.00000   0.03274   0.03238  -3.13761
   D22        0.01396   0.00008   0.00000   0.00038   0.00028   0.01425
   D23        0.00674   0.00203   0.00000   0.02084   0.02071   0.02745
   D24       -3.09249  -0.00145   0.00000  -0.01152  -0.01138  -3.10387
   D25       -2.95468  -0.00040   0.00000  -0.00639  -0.00643  -2.96112
   D26        0.23053  -0.00101   0.00000  -0.01020  -0.01027   0.22027
   D27        0.14000   0.00013   0.00000  -0.00376  -0.00361   0.13639
   D28       -2.95797  -0.00049   0.00000  -0.00758  -0.00744  -2.96541
   D29       -0.05477   0.00071   0.00000   0.00574   0.00579  -0.04898
   D30        3.08478   0.00111   0.00000   0.01150   0.01140   3.09618
   D31        3.04571   0.00108   0.00000   0.00879   0.00890   3.05461
   D32       -0.09793   0.00148   0.00000   0.01455   0.01451  -0.08342
   D33       -0.06037   0.00076   0.00000   0.00890   0.00882  -0.05155
   D34        3.10181   0.00098   0.00000   0.01180   0.01164   3.11346
   D35        3.08323   0.00037   0.00000   0.00327   0.00324   3.08647
   D36       -0.03777   0.00059   0.00000   0.00617   0.00606  -0.03171
   D37        0.08460  -0.00246   0.00000  -0.02231  -0.02266   0.06194
   D38       -3.09899   0.00078   0.00000   0.00897   0.00897  -3.09002
   D39       -3.07746  -0.00273   0.00000  -0.02541  -0.02572  -3.10317
   D40        0.02214   0.00050   0.00000   0.00587   0.00591   0.02805
         Item               Value     Threshold  Converged?
 Maximum Force            0.120516     0.000450     NO 
 RMS     Force            0.021936     0.000300     NO 
 Maximum Displacement     0.224902     0.001800     NO 
 RMS     Displacement     0.067856     0.001200     NO 
 Predicted change in Energy=-3.438729D-02
 GradGradGradGradGradGradGradGradGradGradGradGradGradGradGradGradGradGrad

                          Input orientation:                          
 ---------------------------------------------------------------------
 Center     Atomic      Atomic             Coordinates (Angstroms)
 Number     Number       Type             X           Y           Z
 ---------------------------------------------------------------------
      1          7           0        3.471117   -0.539617   -1.398698
      2          6           0        4.333581   -0.211678   -0.638969
      3          6           0        5.255570    0.941519    1.362834
      4          6           0        5.456137    0.113224    0.235436
      5          6           0        6.777201   -0.362913   -0.091075
      6          6           0        7.929117    0.110020    0.550378
      7          6           0        7.709580    1.044600    1.628447
      8          6           0        6.369101    1.407258    2.108534
      9          6           0        6.261760    2.259745    3.280946
     10          6           0        7.414521    2.854494    3.834632
     11          6           0        8.695916    2.588184    3.300297
     12          6           0        8.835949    1.673150    2.244050
     13          7           0        3.960715    2.698756    4.525060
     14          6           0        4.991980    2.495032    3.954505
     15          1           0        4.242272    1.263838    1.628239
     16          1           0        6.876042   -1.078783   -0.920845
     17          1           0        7.314337    3.529973    4.693492
     18          1           0        9.577635    3.079674    3.726362
     19          1           0        9.838190    1.434493    1.866657
 ---------------------------------------------------------------------
                    Distance matrix (angstroms):
                    1          2          3          4          5
     1  N    0.000000
     2  C    1.195231   0.000000
     3  C    3.606119   2.487397   0.000000
     4  C    2.652716   1.459547   1.413268   0.000000
     5  C    3.559676   2.508852   2.476037   1.441709   0.000000
     6  C    4.908635   3.800779   2.915361   2.492956   1.400728
     7  C    5.444072   4.256381   2.470494   2.808192   2.409809
     8  C    4.948668   3.783261   1.418779   2.452860   2.852776
     9  C    6.125617   5.019118   2.535605   3.812048   4.302853
    10  C    7.379577   6.237523   3.798727   4.929912   5.115570
    11  C    7.691698   6.510530   4.277996   5.100487   4.887928
    12  C    6.851816   5.668835   3.759115   4.229779   3.719786
    13  N    6.768875   5.939431   3.842421   5.227058   6.214106
    14  C    6.338683   5.372129   3.033091   4.440712   5.265129
    15  H    3.606866   2.706606   1.095948   2.176530   3.468174
    16  H    3.480310   2.701006   3.452933   2.184948   1.100345
    17  H    8.273251   7.163797   4.693815   5.916193   6.191539
    18  H    8.755288   7.575567   5.370123   6.162235   5.853773
    19  H    7.422888   6.268074   4.636515   4.858911   4.053768
                    6          7          8          9         10
     6  C    0.000000
     7  C    1.443561   0.000000
     8  C    2.558188   1.469315   0.000000
     9  C    3.854530   2.510680   1.453550   0.000000
    10  C    4.310831   2.868802   2.483306   1.410373   0.000000
    11  C    3.780387   2.480039   2.868615   2.456291   1.413651
    12  C    2.476740   1.429248   2.484835   2.836495   2.438439
    13  N    6.184486   5.018026   3.647998   2.652425   3.525581
    14  C    5.089512   3.860006   2.547023   1.456496   2.451996
    15  H    4.010725   3.474233   2.185099   2.793135   4.178698
    16  H    2.164884   3.420882   3.951522   5.401682   6.194771
    17  H    5.407349   3.965828   3.475830   2.171792   1.097246
    18  H    4.650089   3.468776   3.963462   3.444664   2.177497
    19  H    2.670463   2.177094   3.477617   3.933460   3.429796
                   11         12         13         14         15
    11  C    0.000000
    12  C    1.404476   0.000000
    13  N    4.892280   5.479306   0.000000
    14  C    3.762420   4.286869   1.196054   0.000000
    15  H    4.938078   4.652809   3.244970   2.736679   0.000000
    16  H    5.880189   4.629356   7.240636   6.331736   4.349995
    17  H    2.176401   3.429703   3.459202   2.647744   4.895787
    18  H    1.095684   2.173858   5.686195   4.628400   6.013774
    19  H    2.165898   1.097209   6.573445   5.382342   5.603594
                   16         17         18         19
    16  H    0.000000
    17  H    7.276917   0.000000
    18  H    6.796169   2.502124   0.000000
    19  H    4.781322   4.330342   2.496600   0.000000
 Stoichiometry    C12H5N2(1-)
 Framework group  C1[X(C12H5N2)]
 Deg. of freedom    51
 Full point group                 C1      NOp   1
 Largest Abelian subgroup         C1      NOp   1
 Largest concise Abelian subgroup C1      NOp   1
                         Standard orientation:                         
 ---------------------------------------------------------------------
 Center     Atomic      Atomic             Coordinates (Angstroms)
 Number     Number       Type             X           Y           Z
 ---------------------------------------------------------------------
      1          7           0        4.459864    1.086813    0.327378
      2          6           0        3.368386    0.626887    0.167003
      3          6           0        0.887565    0.712001    0.007545
      4          6           0        2.086791   -0.032403   -0.063497
      5          6           0        2.047163   -1.453748   -0.301685
      6          6           0        0.855045   -2.188901   -0.280629
      7          6           0       -0.353418   -1.421800   -0.093445
      8          6           0       -0.364633    0.046283   -0.034339
      9          6           0       -1.647898    0.725869    0.030479
     10          6           0       -2.835960   -0.014673    0.201526
     11          6           0       -2.809042   -1.427106    0.253654
     12          6           0       -1.595186   -2.109832    0.072013
     13          7           0       -1.892374    3.351747   -0.252984
     14          6           0       -1.769385    2.168982   -0.124587
     15          1           0        0.928524    1.798367    0.146229
     16          1           0        3.003722   -1.979241   -0.441725
     17          1           0       -3.793427    0.513575    0.291857
     18          1           0       -3.738411   -1.984982    0.413559
     19          1           0       -1.589401   -3.207004    0.065091
 ---------------------------------------------------------------------
 Rotational constants (GHZ):      1.0963879      0.5442655      0.3673708
 Standard basis: STO-3G (5D, 7F)
 There are    75 symmetry adapted cartesian basis functions of A   symmetry.
 There are    75 symmetry adapted basis functions of A   symmetry.
    75 basis functions,   225 primitive gaussians,    75 cartesian basis functions
    46 alpha electrons       46 beta electrons
       nuclear repulsion energy       695.9894598295 Hartrees.
 NAtoms=   19 NActive=   19 NUniq=   19 SFac= 1.00D+00 NAtFMM=   60 NAOKFM=F Big=F
 Integral buffers will be    131072 words long.
 Raffenetti 2 integral format.
 Two-electron integral symmetry is turned on.
 One-electron integrals computed using PRISM.
 NBasis=    75 RedAO= T EigKep=  1.73D-01  NBF=    75
 NBsUse=    75 1.00D-06 EigRej= -1.00D+00 NBFU=    75
 Initial guess from the checkpoint file:  "/tmp/bnp.472651.sequoia/Gau-27001.chk"
 B after Tr=     0.000000    0.000000    0.000000
         Rot=    0.999927    0.002409    0.001049    0.011776 Ang=   1.38 deg.
 ExpMin= 1.69D-01 ExpMax= 9.91D+01 ExpMxC= 9.91D+01 IAcc=1 IRadAn=         1 AccDes= 0.00D+00
 Harris functional with IExCor=  402 and IRadAn=       1 diagonalized for initial guess.
 HarFok:  IExCor=  402 AccDes= 0.00D+00 IRadAn=         1 IDoV= 1 UseB2=F ITyADJ=14
 ICtDFT=  3500011 ScaDFX=  1.000000  1.000000  1.000000  1.000000
 FoFCou: FMM=F IPFlag=           0 FMFlag=      100000 FMFlg1=           0
         NFxFlg=           0 DoJE=T BraDBF=F KetDBF=T FulRan=T
         wScrn=  0.000000 ICntrl=     500 IOpCl=  0 I1Cent=   200000004 NGrid=           0
         NMat0=    1 NMatS0=      1 NMatT0=    0 NMatD0=    1 NMtDS0=    0 NMtDT0=    0
 Petite list used in FoFCou.
 Keep R1 ints in memory in canonical form, NReq=4993994.
 Requested convergence on RMS density matrix=1.00D-08 within 128 cycles.
 Requested convergence on MAX density matrix=1.00D-06.
 Requested convergence on             energy=1.00D-06.
 No special actions if energy rises.
 Integral accuracy reduced to 1.0D-05 until final iterations.
 Initial convergence to 1.0D-05 achieved.  Increase integral accuracy.
 SCF Done:  E(RB3LYP) =  -562.509002949     A.U. after   20 cycles
            NFock= 20  Conv=0.40D-08     -V/T= 2.0139
 Calling FoFJK, ICntrl=      2127 FMM=F ISym2X=0 I1Cent= 0 IOpClX= 0 NMat=1 NMatS=1 NMatT=0.
 ***** Axes restored to original set *****
 -------------------------------------------------------------------
 Center     Atomic                   Forces (Hartrees/Bohr)
 Number     Number              X              Y              Z
 -------------------------------------------------------------------
      1        7          -0.010855608   -0.003921859   -0.008746791
      2        6           0.006575428    0.002661881    0.008203943
      3        6          -0.005634908    0.000868557   -0.001538353
      4        6          -0.001841154    0.000758330   -0.002114286
      5        6           0.001431104    0.006330700    0.008669496
      6        6           0.025316733   -0.010346900   -0.015602728
      7        6          -0.012993123   -0.001375143   -0.000064039
      8        6           0.003551324   -0.001290003    0.001453954
      9        6           0.004321243    0.003561991    0.007353352
     10        6          -0.004848762   -0.000313918   -0.000748623
     11        6           0.005246349   -0.005805063   -0.006824061
     12        6          -0.001343474    0.012505851    0.008940570
     13        7          -0.009811526    0.001849096    0.004901116
     14        6           0.005428155   -0.001048329   -0.006190558
     15        1          -0.000401036    0.001031097    0.000673832
     16        1          -0.004986286   -0.003419064   -0.000331824
     17        1          -0.000936228   -0.000186265    0.001471314
     18        1           0.000509097    0.000131277    0.001963253
     19        1           0.001272672   -0.001992236   -0.001469567
 -------------------------------------------------------------------
 Cartesian Forces:  Max     0.025316733 RMS     0.006445339

 GradGradGradGradGradGradGradGradGradGradGradGradGradGradGradGradGradGrad
 Berny optimization.
 Using GEDIIS/GDIIS optimizer.
 FormGI is forming the generalized inverse of G from B-inverse, IUseBI=4.
 Internal  Forces:  Max     0.017904975 RMS     0.004358023
 Search for a local minimum.
 Step number   2 out of a maximum of  102
 All quantities printed in internal units (Hartrees-Bohrs-Radians)
 Mixed Optimization -- RFO/linear search
 Update second derivatives using D2CorX and points    1    2
 DE= -3.19D-02 DEPred=-3.44D-02 R= 9.27D-01
 TightC=F SS=  1.41D+00  RLast= 3.27D-01 DXNew= 5.0454D-01 9.8099D-01
 Trust test= 9.27D-01 RLast= 3.27D-01 DXMaxT set to 5.05D-01
 ITU=  1  0
 Use linear search instead of GDIIS.
     Eigenvalues ---    0.01570   0.01603   0.01805   0.01834   0.01866
     Eigenvalues ---    0.01886   0.01959   0.02044   0.02069   0.02079
     Eigenvalues ---    0.02113   0.02211   0.02216   0.02223   0.02229
     Eigenvalues ---    0.02271   0.04850   0.04892   0.15837   0.15977
     Eigenvalues ---    0.15995   0.15999   0.16017   0.21828   0.22136
     Eigenvalues ---    0.23430   0.23473   0.24578   0.24911   0.24967
     Eigenvalues ---    0.25108   0.34831   0.34896   0.35029   0.35104
     Eigenvalues ---    0.35236   0.37874   0.39734   0.40027   0.40082
     Eigenvalues ---    0.40453   0.42615   0.43000   0.45201   0.45334
     Eigenvalues ---    0.46119   0.47219   0.47738   0.50561   1.28168
     Eigenvalues ---    1.34352
 RFO step:  Lambda=-5.77617627D-03 EMin= 1.57031129D-02
 Quartic linear search produced a step of  0.30742.
 Iteration  1 RMS(Cart)=  0.08955021 RMS(Int)=  0.00371823
 Iteration  2 RMS(Cart)=  0.00554724 RMS(Int)=  0.00052262
 Iteration  3 RMS(Cart)=  0.00001221 RMS(Int)=  0.00052252
 Iteration  4 RMS(Cart)=  0.00000000 RMS(Int)=  0.00052252
 Variable       Old X    -DE/DX   Delta X   Delta X   Delta X     New X
                                 (Linear)    (Quad)   (Total)
    R1        2.25866   0.01447   0.02286  -0.00993   0.01293   2.27159
    R2        2.75814   0.00390   0.01185  -0.00040   0.01144   2.76959
    R3        2.67069  -0.00164   0.00105  -0.00749  -0.00651   2.66418
    R4        2.68110   0.00057  -0.00370   0.00522   0.00115   2.68225
    R5        2.07104   0.00084   0.00480  -0.00224   0.00256   2.07360
    R6        2.72444   0.00716   0.02705  -0.01051   0.01685   2.74128
    R7        2.64699   0.00856   0.01079   0.01131   0.02248   2.66948
    R8        2.07935   0.00203   0.00702  -0.00033   0.00669   2.08604
    R9        2.72793   0.01652   0.02960   0.01445   0.04409   2.77203
   R10        2.77660   0.00420   0.02656  -0.01442   0.01188   2.78848
   R11        2.70089   0.00696   0.02254  -0.00541   0.01728   2.71816
   R12        2.74681   0.00443   0.01650  -0.00398   0.01244   2.75925
   R13        2.66522  -0.00363   0.00253  -0.01342  -0.01103   2.65419
   R14        2.75238   0.00335   0.01126  -0.00158   0.00968   2.76206
   R15        2.67141   0.00474   0.01383  -0.00276   0.01101   2.68242
   R16        2.07350   0.00112   0.00427  -0.00058   0.00369   2.07718
   R17        2.65408  -0.00416   0.00892  -0.02138  -0.01236   2.64171
   R18        2.07054   0.00123   0.00530  -0.00137   0.00393   2.07448
   R19        2.07342   0.00210   0.00464   0.00259   0.00723   2.08065
   R20        2.26021   0.01111   0.02021  -0.01015   0.01006   2.27028
    A1        2.09473  -0.00259  -0.00606  -0.01285  -0.02067   2.07406
    A2        2.09067   0.00224   0.00611   0.01197   0.01778   2.10845
    A3        2.09652   0.00041   0.00038   0.00393   0.00400   2.10052
    A4        2.09350  -0.00326  -0.01068  -0.00085  -0.01218   2.08132
    A5        2.08927   0.00232   0.00756   0.00731   0.01423   2.10350
    A6        2.09933   0.00102   0.00365  -0.00372  -0.00119   2.09814
    A7        2.13925   0.00990   0.01537   0.03771   0.05277   2.19202
    A8        2.05777  -0.01009  -0.01808  -0.04611  -0.06453   1.99324
    A9        2.08418   0.00025   0.00279   0.01110   0.01355   2.09772
   A10        2.02141  -0.01790  -0.02986  -0.05486  -0.08454   1.93687
   A11        2.14427   0.00789   0.01197   0.02901   0.04028   2.18455
   A12        2.07891  -0.00055   0.00547  -0.01113  -0.00549   2.07342
   A13        2.05975  -0.00733  -0.01736  -0.01731  -0.03455   2.02520
   A14        2.05248   0.00167   0.00402   0.00226   0.00544   2.05792
   A15        2.16337  -0.00521  -0.01363  -0.01216  -0.02511   2.13826
   A16        2.06653   0.00354   0.00964   0.00973   0.01954   2.08607
   A17        2.09857  -0.00010  -0.00265   0.00380   0.00052   2.09909
   A18        2.13191  -0.00375  -0.00236  -0.01663  -0.01889   2.11302
   A19        2.05205   0.00388   0.00504   0.01388   0.01901   2.07106
   A20        2.10953  -0.00084   0.00180  -0.00785  -0.00651   2.10302
   A21        2.08548  -0.00056  -0.00592   0.00210  -0.00360   2.08188
   A22        2.08817   0.00140   0.00412   0.00573   0.01006   2.09823
   A23        2.09137   0.00075   0.00198   0.00047   0.00224   2.09361
   A24        2.09203  -0.00146  -0.00382  -0.00550  -0.00922   2.08281
   A25        2.09955   0.00070   0.00182   0.00489   0.00679   2.10634
   A26        2.13160   0.00409   0.00692   0.01582   0.02205   2.15365
   A27        2.06697  -0.00382  -0.00842  -0.01570  -0.02483   2.04214
   A28        2.08457  -0.00026   0.00173   0.00040   0.00142   2.08599
   A29        3.06305   0.00120  -0.00850   0.08923   0.08073   3.14379
   A30        3.16113  -0.00098  -0.01248  -0.00581  -0.01829   3.14284
   A31        3.15415   0.00059   0.02393  -0.01114   0.01279   3.16694
   A32        3.14157   0.00038   0.01084  -0.00619   0.00465   3.14622
    D1       -2.99175  -0.00306  -0.01170  -0.11512  -0.12757  -3.11932
    D2        0.09963  -0.00137  -0.00204  -0.05147  -0.05485   0.04477
    D3        0.09565  -0.00151  -0.00426  -0.05016  -0.05415   0.04150
    D4       -3.09616   0.00018   0.00540   0.01349   0.01856  -3.07759
    D5        0.04524   0.00124   0.00814   0.06837   0.07662   0.12186
    D6       -3.14011   0.00141   0.00915   0.06396   0.07366  -3.06645
    D7       -3.04198  -0.00037   0.00042   0.00294   0.00311  -3.03887
    D8        0.05586  -0.00021   0.00142  -0.00147   0.00015   0.05600
    D9        2.92727   0.00033  -0.00223   0.03917   0.03604   2.96331
   D10       -0.14625  -0.00065  -0.00355  -0.00746  -0.01059  -0.15684
   D11       -0.16423  -0.00119  -0.01101  -0.02410  -0.03684  -0.20107
   D12        3.04544  -0.00218  -0.01234  -0.07073  -0.08348   2.96196
   D13        0.06993   0.00197   0.01400   0.06868   0.08195   0.15188
   D14       -3.14073   0.00259   0.01450   0.11387   0.12839  -3.01234
   D15        0.08262  -0.00131  -0.00682  -0.04454  -0.04975   0.03287
   D16       -3.03430  -0.00192  -0.00997  -0.07174  -0.08090  -3.11520
   D17       -0.14113  -0.00071  -0.00555  -0.02332  -0.02820  -0.16933
   D18        3.04172  -0.00063  -0.00586  -0.01860  -0.02418   3.01754
   D19        2.97604  -0.00001  -0.00198   0.00367   0.00254   2.97858
   D20       -0.12429   0.00006  -0.00229   0.00839   0.00655  -0.11773
   D21       -3.13761   0.00173   0.00995   0.06111   0.07013  -3.06748
   D22        0.01425   0.00009   0.00009   0.00274   0.00248   0.01672
   D23        0.02745   0.00093   0.00637   0.03457   0.04076   0.06821
   D24       -3.10387  -0.00071  -0.00350  -0.02379  -0.02689  -3.13077
   D25       -2.96112  -0.00069  -0.00198  -0.03459  -0.03706  -2.99818
   D26        0.22027  -0.00141  -0.00316  -0.06669  -0.06999   0.15027
   D27        0.13639  -0.00057  -0.00111  -0.03922  -0.04043   0.09596
   D28       -2.96541  -0.00129  -0.00229  -0.07132  -0.07336  -3.03877
   D29       -0.04898   0.00076   0.00178   0.03033   0.03185  -0.01713
   D30        3.09618   0.00092   0.00351   0.03607   0.03920   3.13538
   D31        3.05461   0.00128   0.00274   0.06031   0.06316   3.11777
   D32       -0.08342   0.00144   0.00446   0.06605   0.07051  -0.01291
   D33       -0.05155   0.00039   0.00271   0.01317   0.01572  -0.03583
   D34        3.11346   0.00054   0.00358   0.02006   0.02336   3.13682
   D35        3.08647   0.00023   0.00100   0.00741   0.00827   3.09474
   D36       -0.03171   0.00038   0.00186   0.01430   0.01591  -0.01579
   D37        0.06194  -0.00128  -0.00697  -0.04622  -0.05375   0.00819
   D38       -3.09002   0.00035   0.00276   0.01262   0.01537  -3.07465
   D39       -3.10317  -0.00146  -0.00791  -0.05327  -0.06172   3.11829
   D40        0.02805   0.00018   0.00182   0.00557   0.00741   0.03546
         Item               Value     Threshold  Converged?
 Maximum Force            0.017905     0.000450     NO 
 RMS     Force            0.004358     0.000300     NO 
 Maximum Displacement     0.352980     0.001800     NO 
 RMS     Displacement     0.090056     0.001200     NO 
 Predicted change in Energy=-4.097684D-03
 GradGradGradGradGradGradGradGradGradGradGradGradGradGradGradGradGradGrad

                          Input orientation:                          
 ---------------------------------------------------------------------
 Center     Atomic      Atomic             Coordinates (Angstroms)
 Number     Number       Type             X           Y           Z
 ---------------------------------------------------------------------
      1          7           0        3.366452   -0.645000   -1.211909
      2          6           0        4.318504   -0.276606   -0.577198
      3          6           0        5.269713    1.010148    1.318676
      4          6           0        5.472289    0.152614    0.218128
      5          6           0        6.805540   -0.320059   -0.103325
      6          6           0        8.008238    0.172737    0.450013
      7          6           0        7.737242    1.096679    1.556660
      8          6           0        6.396242    1.442307    2.066222
      9          6           0        6.272518    2.254613    3.273218
     10          6           0        7.415861    2.800290    3.879619
     11          6           0        8.705183    2.552473    3.340036
     12          6           0        8.846812    1.725087    2.222185
     13          7           0        3.895156    2.726184    4.376524
     14          6           0        4.967507    2.510482    3.879689
     15          1           0        4.258971    1.325619    1.606690
     16          1           0        6.831108   -1.119570   -0.864046
     17          1           0        7.303432    3.414229    4.784425
     18          1           0        9.585485    2.992163    3.826688
     19          1           0        9.854465    1.486582    1.847984
 ---------------------------------------------------------------------
                    Distance matrix (angstroms):
                    1          2          3          4          5
     1  N    0.000000
     2  C    1.202072   0.000000
     3  C    3.572923   2.480901   0.000000
     4  C    2.667535   1.465603   1.409826   0.000000
     5  C    3.627929   2.532151   2.479981   1.450624   0.000000
     6  C    4.997685   3.856320   2.992549   2.546607   1.412626
     7  C    5.459142   4.257585   2.480489   2.795164   2.372924
     8  C    4.927740   3.776152   1.419385   2.435662   2.824959
     9  C    6.080242   5.005091   2.524786   3.793724   4.279496
    10  C    7.361481   6.238920   3.790645   4.918758   5.096363
    11  C    7.710129   6.526205   4.274005   5.094824   4.869992
    12  C    6.888009   5.687609   3.758072   4.228040   3.709099
    13  N    6.547901   5.808212   3.766247   5.138372   6.149714
    14  C    6.200388   5.296499   2.983473   4.384218   5.220606
    15  H    3.553088   2.709250   1.097303   2.185449   3.481009
    16  H    3.514267   2.665718   3.426066   2.153124   1.103887
    17  H    8.242159   7.160939   4.682631   5.902735   6.171135
    18  H    8.791632   7.603956   5.370698   6.164668   5.843280
    19  H    7.483375   6.295808   4.639732   4.862033   4.045677
                    6          7          8          9         10
     6  C    0.000000
     7  C    1.466893   0.000000
     8  C    2.611986   1.475599   0.000000
     9  C    3.913747   2.536296   1.460132   0.000000
    10  C    4.360866   2.898571   2.484381   1.404535   0.000000
    11  C    3.808033   2.497334   2.861167   2.451743   1.419477
    12  C    2.500719   1.438390   2.471757   2.830558   2.439421
    13  N    6.233380   5.036720   3.638855   2.662990   3.556370
    14  C    5.145267   3.881589   2.543805   1.461619   2.465446
    15  H    4.089504   3.486157   2.189227   2.773935   4.160146
    16  H    2.186879   3.404799   3.916477   5.367875   6.181391
    17  H    5.458127   3.997211   3.478519   2.165927   1.099197
    18  H    4.673202   3.487390   3.958859   3.438904   2.178735
    19  H    2.662531   2.172447   3.465385   3.930841   3.435137
                   11         12         13         14         15
    11  C    0.000000
    12  C    1.397934   0.000000
    13  N    4.923499   5.492019   0.000000
    14  C    3.776666   4.291057   1.201378   0.000000
    15  H    4.927318   4.646149   3.125048   2.659407   0.000000
    16  H    5.888154   4.656174   7.132546   6.257260   4.324278
    17  H    2.189472   3.435156   3.500876   2.663053   4.871246
    18  H    1.097766   2.173833   5.723016   4.643334   6.006457
    19  H    2.164069   1.101034   6.591168   5.390599   5.603008
                   16         17         18         19
    16  H    0.000000
    17  H    7.258350   0.000000
    18  H    6.818792   2.510611   0.000000
    19  H    4.825745   4.341231   2.500879   0.000000
 Stoichiometry    C12H5N2(1-)
 Framework group  C1[X(C12H5N2)]
 Deg. of freedom    51
 Full point group                 C1      NOp   1
 Largest Abelian subgroup         C1      NOp   1
 Largest concise Abelian subgroup C1      NOp   1
                         Standard orientation:                         
 ---------------------------------------------------------------------
 Center     Atomic      Atomic             Coordinates (Angstroms)
 Number     Number       Type             X           Y           Z
 ---------------------------------------------------------------------
      1          7           0        4.444471    1.080079    0.182864
      2          6           0        3.373655    0.538774    0.109946
      3          6           0        0.896336    0.670466    0.089396
      4          6           0        2.065446   -0.111476   -0.007340
      5          6           0        1.971164   -1.538814   -0.248436
      6          6           0        0.788462   -2.308119   -0.178461
      7          6           0       -0.389784   -1.447266   -0.028640
      8          6           0       -0.366211    0.027827    0.001969
      9          6           0       -1.624982    0.767745   -0.000235
     10          6           0       -2.848579    0.083457    0.085076
     11          6           0       -2.877899   -1.334071    0.153422
     12          6           0       -1.685161   -2.060645    0.092727
     13          7           0       -1.658752    3.424783   -0.174960
     14          6           0       -1.642596    2.225912   -0.099089
     15          1           0        0.957015    1.759227    0.211838
     16          1           0        2.935028   -2.022696   -0.483793
     17          1           0       -3.786275    0.657000    0.088014
     18          1           0       -3.844691   -1.849234    0.224199
     19          1           0       -1.720222   -3.161072    0.082397
 ---------------------------------------------------------------------
 Rotational constants (GHZ):      1.0747795      0.5553486      0.3678591
 Standard basis: STO-3G (5D, 7F)
 There are    75 symmetry adapted cartesian basis functions of A   symmetry.
 There are    75 symmetry adapted basis functions of A   symmetry.
    75 basis functions,   225 primitive gaussians,    75 cartesian basis functions
    46 alpha electrons       46 beta electrons
       nuclear repulsion energy       694.9680151094 Hartrees.
 NAtoms=   19 NActive=   19 NUniq=   19 SFac= 1.00D+00 NAtFMM=   60 NAOKFM=F Big=F
 Integral buffers will be    131072 words long.
 Raffenetti 2 integral format.
 Two-electron integral symmetry is turned on.
 One-electron integrals computed using PRISM.
 NBasis=    75 RedAO= T EigKep=  1.76D-01  NBF=    75
 NBsUse=    75 1.00D-06 EigRej= -1.00D+00 NBFU=    75
 Initial guess from the checkpoint file:  "/tmp/bnp.472651.sequoia/Gau-27001.chk"
 B after Tr=     0.000000    0.000000    0.000000
         Rot=    0.999867    0.001642    0.000761    0.016238 Ang=   1.87 deg.
 ExpMin= 1.69D-01 ExpMax= 9.91D+01 ExpMxC= 9.91D+01 IAcc=1 IRadAn=         1 AccDes= 0.00D+00
 Harris functional with IExCor=  402 and IRadAn=       1 diagonalized for initial guess.
 HarFok:  IExCor=  402 AccDes= 0.00D+00 IRadAn=         1 IDoV= 1 UseB2=F ITyADJ=14
 ICtDFT=  3500011 ScaDFX=  1.000000  1.000000  1.000000  1.000000
 FoFCou: FMM=F IPFlag=           0 FMFlag=      100000 FMFlg1=           0
         NFxFlg=           0 DoJE=T BraDBF=F KetDBF=T FulRan=T
         wScrn=  0.000000 ICntrl=     500 IOpCl=  0 I1Cent=   200000004 NGrid=           0
         NMat0=    1 NMatS0=      1 NMatT0=    0 NMatD0=    1 NMtDS0=    0 NMtDT0=    0
 Petite list used in FoFCou.
 Keep R1 ints in memory in canonical form, NReq=4993994.
 Requested convergence on RMS density matrix=1.00D-08 within 128 cycles.
 Requested convergence on MAX density matrix=1.00D-06.
 Requested convergence on             energy=1.00D-06.
 No special actions if energy rises.
 Integral accuracy reduced to 1.0D-05 until final iterations.
 Initial convergence to 1.0D-05 achieved.  Increase integral accuracy.
 SCF Done:  E(RB3LYP) =  -562.513004103     A.U. after   19 cycles
            NFock= 19  Conv=0.37D-08     -V/T= 2.0140
 Calling FoFJK, ICntrl=      2127 FMM=F ISym2X=0 I1Cent= 0 IOpClX= 0 NMat=1 NMatS=1 NMatT=0.
 ***** Axes restored to original set *****
 -------------------------------------------------------------------
 Center     Atomic                   Forces (Hartrees/Bohr)
 Number     Number              X              Y              Z
 -------------------------------------------------------------------
      1        7           0.003369467   -0.000268502    0.000328687
      2        6          -0.003605607    0.001740313    0.001319124
      3        6          -0.003799095   -0.001505548    0.000400645
      4        6           0.003421222   -0.004287143   -0.001271108
      5        6          -0.005789951   -0.000111915    0.000142976
      6        6           0.004555544   -0.003642239   -0.001957997
      7        6          -0.006298439    0.005224616    0.002880168
      8        6           0.003652751    0.001078604   -0.001100144
      9        6           0.002258778    0.001029134    0.000704604
     10        6          -0.002330163    0.000400480    0.001360183
     11        6           0.002099275   -0.001230424   -0.001520987
     12        6           0.001612464   -0.000552964    0.003209422
     13        7           0.001808976   -0.000126372   -0.000566315
     14        6          -0.002120893   -0.000122006   -0.000724925
     15        1           0.000516271    0.000549213   -0.000373759
     16        1           0.000873651    0.001268297   -0.001787437
     17        1           0.000508739   -0.000279401   -0.000333443
     18        1          -0.000386013   -0.000073283   -0.000155494
     19        1          -0.000346976    0.000909140   -0.000554202
 -------------------------------------------------------------------
 Cartesian Forces:  Max     0.006298439 RMS     0.002265655

 GradGradGradGradGradGradGradGradGradGradGradGradGradGradGradGradGradGrad
 Berny optimization.
 Using GEDIIS/GDIIS optimizer.
 FormGI is forming the generalized inverse of G from B-inverse, IUseBI=4.
 Internal  Forces:  Max     0.004936569 RMS     0.001168881
 Search for a local minimum.
 Step number   3 out of a maximum of  102
 All quantities printed in internal units (Hartrees-Bohrs-Radians)
 Mixed Optimization -- RFO/linear search
 Update second derivatives using D2CorX and points    2    3
 DE= -4.00D-03 DEPred=-4.10D-03 R= 9.76D-01
 TightC=F SS=  1.41D+00  RLast= 3.88D-01 DXNew= 8.4853D-01 1.1630D+00
 Trust test= 9.76D-01 RLast= 3.88D-01 DXMaxT set to 8.49D-01
 ITU=  1  1  0
 Use linear search instead of GDIIS.
     Eigenvalues ---    0.01502   0.01593   0.01793   0.01833   0.01856
     Eigenvalues ---    0.01913   0.01947   0.02048   0.02069   0.02099
     Eigenvalues ---    0.02115   0.02205   0.02224   0.02228   0.02235
     Eigenvalues ---    0.02841   0.04859   0.04887   0.15652   0.15980
     Eigenvalues ---    0.15995   0.16014   0.16055   0.19384   0.22105
     Eigenvalues ---    0.23414   0.23493   0.24420   0.24962   0.25020
     Eigenvalues ---    0.25204   0.34835   0.34893   0.35011   0.35103
     Eigenvalues ---    0.35238   0.37815   0.39722   0.39927   0.40101
     Eigenvalues ---    0.40350   0.41954   0.42790   0.44171   0.45551
     Eigenvalues ---    0.46203   0.47147   0.47645   0.50460   1.28169
     Eigenvalues ---    1.35176
 RFO step:  Lambda=-1.75994243D-03 EMin= 1.50181336D-02
 Quartic linear search produced a step of -0.06559.
 Iteration  1 RMS(Cart)=  0.05202117 RMS(Int)=  0.00525369
 Iteration  2 RMS(Cart)=  0.00784144 RMS(Int)=  0.00012747
 Iteration  3 RMS(Cart)=  0.00014835 RMS(Int)=  0.00005079
 Iteration  4 RMS(Cart)=  0.00000005 RMS(Int)=  0.00005079
 Variable       Old X    -DE/DX   Delta X   Delta X   Delta X     New X
                                 (Linear)    (Quad)   (Total)
    R1        2.27159  -0.00276  -0.00085   0.00173   0.00088   2.27247
    R2        2.76959  -0.00114  -0.00075   0.00054  -0.00021   2.76938
    R3        2.66418   0.00129   0.00043   0.00078   0.00119   2.66538
    R4        2.68225   0.00269  -0.00008   0.00618   0.00610   2.68835
    R5        2.07360  -0.00042  -0.00017  -0.00038  -0.00055   2.07306
    R6        2.74128  -0.00227  -0.00110   0.00017  -0.00094   2.74034
    R7        2.66948   0.00275  -0.00147   0.01164   0.01016   2.67964
    R8        2.08604   0.00033  -0.00044   0.00275   0.00231   2.08836
    R9        2.77203   0.00494  -0.00289   0.02229   0.01940   2.79143
   R10        2.78848  -0.00311  -0.00078  -0.00346  -0.00424   2.78423
   R11        2.71816   0.00177  -0.00113   0.00836   0.00723   2.72540
   R12        2.75925   0.00021  -0.00082   0.00400   0.00316   2.76241
   R13        2.65419  -0.00034   0.00072  -0.00376  -0.00304   2.65115
   R14        2.76206  -0.00030  -0.00063   0.00202   0.00139   2.76345
   R15        2.68242   0.00131  -0.00072   0.00565   0.00494   2.68736
   R16        2.07718  -0.00048  -0.00024  -0.00025  -0.00050   2.07669
   R17        2.64171  -0.00161   0.00081  -0.00658  -0.00575   2.63597
   R18        2.07448  -0.00041  -0.00026   0.00003  -0.00023   2.07425
   R19        2.08065  -0.00033  -0.00047   0.00115   0.00067   2.08133
   R20        2.27028  -0.00187  -0.00066   0.00152   0.00086   2.27114
    A1        2.07406  -0.00042   0.00136  -0.00691  -0.00557   2.06848
    A2        2.10845   0.00043  -0.00117   0.00666   0.00553   2.11398
    A3        2.10052   0.00001  -0.00026   0.00043   0.00020   2.10072
    A4        2.08132  -0.00085   0.00080  -0.00687  -0.00610   2.07522
    A5        2.10350  -0.00010  -0.00093   0.00325   0.00230   2.10580
    A6        2.09814   0.00097   0.00008   0.00403   0.00402   2.10216
    A7        2.19202   0.00014  -0.00346   0.01657   0.01306   2.20508
    A8        1.99324   0.00069   0.00423  -0.01480  -0.01059   1.98266
    A9        2.09772  -0.00084  -0.00089  -0.00207  -0.00299   2.09474
   A10        1.93687  -0.00108   0.00555  -0.02485  -0.01933   1.91754
   A11        2.18455   0.00043  -0.00264   0.01387   0.01119   2.19574
   A12        2.07342  -0.00104   0.00036  -0.00644  -0.00611   2.06731
   A13        2.02520   0.00060   0.00227  -0.00756  -0.00541   2.01979
   A14        2.05792   0.00018  -0.00036   0.00295   0.00256   2.06049
   A15        2.13826   0.00043   0.00165  -0.00593  -0.00426   2.13400
   A16        2.08607  -0.00059  -0.00128   0.00366   0.00226   2.08833
   A17        2.09909   0.00104  -0.00003   0.00453   0.00442   2.10351
   A18        2.11302  -0.00181   0.00124  -0.01227  -0.01098   2.10203
   A19        2.07106   0.00076  -0.00125   0.00777   0.00657   2.07763
   A20        2.10302  -0.00072   0.00043  -0.00430  -0.00393   2.09909
   A21        2.08188   0.00083   0.00024   0.00299   0.00325   2.08514
   A22        2.09823  -0.00011  -0.00066   0.00130   0.00067   2.09890
   A23        2.09361  -0.00041  -0.00015  -0.00057  -0.00075   2.09286
   A24        2.08281   0.00012   0.00060  -0.00232  -0.00173   2.08109
   A25        2.10634   0.00030  -0.00045   0.00316   0.00271   2.10905
   A26        2.15365   0.00014  -0.00145   0.00736   0.00592   2.15957
   A27        2.04214  -0.00006   0.00163  -0.00722  -0.00555   2.03659
   A28        2.08599  -0.00005  -0.00009   0.00014   0.00009   2.08607
   A29        3.14379  -0.00449  -0.00530  -0.21749  -0.22278   2.92100
   A30        3.14284   0.00072   0.00120   0.00864   0.00984   3.15268
   A31        3.16694  -0.00026  -0.00084  -0.01197  -0.01281   3.15413
   A32        3.14622   0.00014  -0.00030   0.00377   0.00347   3.14968
    D1       -3.11932   0.00084   0.00837   0.00049   0.00890  -3.11042
    D2        0.04477  -0.00013   0.00360  -0.02020  -0.01643   0.02834
    D3        0.04150   0.00020   0.00355  -0.00962  -0.00610   0.03540
    D4       -3.07759  -0.00076  -0.00122  -0.03031  -0.03144  -3.10903
    D5        0.12186  -0.00047  -0.00503  -0.00449  -0.00946   0.11240
    D6       -3.06645  -0.00012  -0.00483   0.01247   0.00764  -3.05881
    D7       -3.03887   0.00017  -0.00020   0.00564   0.00549  -3.03338
    D8        0.05600   0.00052  -0.00001   0.02260   0.02259   0.07859
    D9        2.96331   0.00003  -0.00236   0.00862   0.00633   2.96964
   D10       -0.15684   0.00077   0.00069   0.02518   0.02582  -0.13102
   D11       -0.20107   0.00100   0.00242   0.02944   0.03201  -0.16907
   D12        2.96196   0.00174   0.00548   0.04600   0.05150   3.01346
   D13        0.15188  -0.00089  -0.00538  -0.01353  -0.01888   0.13300
   D14       -3.01234  -0.00165  -0.00842  -0.03113  -0.03958  -3.05192
   D15        0.03287   0.00013   0.00326  -0.01140  -0.00823   0.02465
   D16       -3.11520  -0.00023   0.00531  -0.03633  -0.03112   3.13686
   D17       -0.16933   0.00065   0.00185   0.02096   0.02271  -0.14662
   D18        3.01754   0.00029   0.00159   0.00479   0.00625   3.02379
   D19        2.97858   0.00101  -0.00017   0.04528   0.04506   3.02364
   D20       -0.11773   0.00065  -0.00043   0.02910   0.02860  -0.08913
[...]
 ! D14   D(16,5,6,7)           179.9394         -DE/DX =    0.0                 !
 ! D15   D(5,6,7,8)              0.0544         -DE/DX =    0.0                 !
 ! D16   D(5,6,7,12)          -179.9502         -DE/DX =    0.0                 !
 ! D17   D(6,7,8,3)             -0.0353         -DE/DX =    0.0                 !
 ! D18   D(6,7,8,9)            179.9993         -DE/DX =    0.0                 !
 ! D19   D(12,7,8,3)           179.9693         -DE/DX =    0.0                 !
 ! D20   D(12,7,8,9)             0.0039         -DE/DX =    0.0                 !
 ! D21   D(6,7,12,11)         -180.0207         -DE/DX =    0.0                 !
 ! D22   D(6,7,12,19)           -0.0124         -DE/DX =    0.0                 !
 ! D23   D(8,7,12,11)           -0.0248         -DE/DX =    0.0                 !
 ! D24   D(8,7,12,19)         -180.0165         -DE/DX =    0.0                 !
 ! D25   D(3,8,9,10)          -179.9493         -DE/DX =    0.0                 !
 ! D26   D(3,8,9,14)             0.055          -DE/DX =    0.0                 !
 ! D27   D(7,8,9,10)             0.0147         -DE/DX =    0.0                 !
 ! D28   D(7,8,9,14)          -179.9811         -DE/DX =    0.0                 !
 ! D29   D(8,9,10,11)           -0.0137         -DE/DX =    0.0                 !
 ! D30   D(8,9,10,17)         -180.0104         -DE/DX =    0.0                 !
 ! D31   D(14,9,10,11)         179.9821         -DE/DX =    0.0                 !
 ! D32   D(14,9,10,17)          -0.0146         -DE/DX =    0.0                 !
 ! D33   D(9,10,11,12)          -0.0065         -DE/DX =    0.0                 !
 ! D34   D(9,10,11,18)         179.9959         -DE/DX =    0.0                 !
 ! D35   D(17,10,11,12)        179.9902         -DE/DX =    0.0                 !
 ! D36   D(17,10,11,18)         -0.0074         -DE/DX =    0.0                 !
 ! D37   D(10,11,12,7)           0.0268         -DE/DX =    0.0                 !
 ! D38   D(10,11,12,19)       -179.9817         -DE/DX =    0.0                 !
 ! D39   D(18,11,12,7)        -179.9757         -DE/DX =    0.0                 !
 ! D40   D(18,11,12,19)          0.0158         -DE/DX =    0.0                 !
 --------------------------------------------------------------------------------
 GradGradGradGradGradGradGradGradGradGradGradGradGradGradGradGradGradGrad

                          Input orientation:                          
 ---------------------------------------------------------------------
 Center     Atomic      Atomic             Coordinates (Angstroms)
 Number     Number       Type             X           Y           Z
 ---------------------------------------------------------------------
      1          7           0        3.388855   -0.876100   -1.089620
      2          6           0        4.303096   -0.409267   -0.467195
      3          6           0        5.258071    0.936754    1.382183
      4          6           0        5.467248    0.128600    0.247022
      5          6           0        6.800618   -0.172347   -0.216081
      6          6           0        8.026516    0.270179    0.362909
      7          6           0        7.728318    1.113011    1.548063
      8          6           0        6.397018    1.451793    2.064285
      9          6           0        6.277257    2.298084    3.248418
     10          6           0        7.420443    2.789906    3.896172
     11          6           0        8.715004    2.467935    3.404560
     12          6           0        8.847269    1.660496    2.274919
     13          7           0        3.885288    2.941671    4.225646
     14          6           0        4.960950    2.648386    3.780927
     15          1           0        4.246545    1.167155    1.736768
     16          1           0        6.828582   -0.814381   -1.114396
     17          1           0        7.309446    3.425146    4.785408
     18          1           0        9.599011    2.860674    3.922655
     19          1           0        9.851184    1.413274    1.897635
 ---------------------------------------------------------------------
                    Distance matrix (angstroms):
                    1          2          3          4          5
     1  N    0.000000
     2  C    1.200493   0.000000
     3  C    3.590294   2.478698   0.000000
     4  C    2.667536   1.467875   1.409062   0.000000
     5  C    3.591444   2.521271   2.482741   1.443229   0.000000
     6  C    4.993165   3.874864   3.024489   2.565800   1.426143
     7  C    5.453886   4.255671   2.482076   2.788227   2.371703
     8  C    4.941179   3.775771   1.423984   2.432644   2.828567
     9  C    6.102203   5.003283   2.524836   3.790930   4.287154
    10  C    7.385894   6.244320   3.798707   4.920754   5.105854
    11  C    7.729689   6.537103   4.287764   5.098083   4.872884
    12  C    6.895558   5.696719   3.768703   4.228902   3.708527
    13  N    6.563069   5.781532   3.740255   5.123028   6.158344
    14  C    6.214154   5.275278   2.961746   4.369684   5.226565
    15  H    3.591516   2.710306   1.096358   2.188162   3.482984
    16  H    3.440370   2.638383   3.430144   2.143806   1.104518
    17  H    8.269686   7.164545   4.688516   5.904054   6.181889
    18  H    8.812061   7.616431   5.385094   6.168142   5.844601
    19  H    7.478411   6.300425   4.646446   4.857346   4.035832
                    6          7          8          9         10
     6  C    0.000000
     7  C    1.484547   0.000000
     8  C    2.635556   1.467520   0.000000
     9  C    3.936809   2.530055   1.460384   0.000000
    10  C    4.381814   2.901788   2.488726   1.402979   0.000000
    11  C    3.815205   2.501189   2.863903   2.448641   1.421702
    12  C    2.502478   1.442259   2.468127   2.821202   2.437182
    13  N    6.261579   5.028153   3.633181   2.662836   3.553718
    14  C    5.170726   3.873161   2.537909   1.462511   2.466255
    15  H    4.120709   3.487303   2.193815   2.772702   4.167731
    16  H    2.189463   3.407794   3.927570   5.387536   6.200563
    17  H    5.479645   4.000228   3.482981   2.167492   1.098450
    18  H    4.674955   3.491777   3.961218   3.435863   2.179878
    19  H    2.644138   2.172308   3.458398   3.921793   3.434787
                   11         12         13         14         15
    11  C    0.000000
    12  C    1.394826   0.000000
    13  N    4.921866   5.483429   0.000000
    14  C    3.777186   4.283393   1.200350   0.000000
    15  H    4.943753   4.658289   3.077975   2.623548   0.000000
    16  H    5.895180   4.656991   7.161491   6.280365   4.326955
    17  H    2.190568   3.432411   3.503133   2.669789   4.875869
    18  H    1.097331   2.172690   5.722324   4.645079   6.024534
    19  H    2.161952   1.100595   6.583886   5.383927   5.612347
                   16         17         18         19
    16  H    0.000000
    17  H    7.280969   0.000000
    18  H    6.822990   2.510992   0.000000
    19  H    4.813617   4.341347   2.501852   0.000000
 Stoichiometry    C12H5N2(1-)
 Framework group  C1[X(C12H5N2)]
 Deg. of freedom    51
 Full point group                 C1      NOp   1
 Largest Abelian subgroup         C1      NOp   1
 Largest concise Abelian subgroup C1      NOp   1
                         Standard orientation:                         
 ---------------------------------------------------------------------
 Center     Atomic      Atomic             Coordinates (Angstroms)
 Number     Number       Type             X           Y           Z
 ---------------------------------------------------------------------
      1          7           0        4.462594    1.057872    0.000975
      2          6           0        3.366996    0.567108    0.000633
      3          6           0        0.891297    0.689017   -0.000376
      4          6           0        2.059154   -0.099378   -0.000161
      5          6           0        1.983417   -1.540619   -0.000354
      6          6           0        0.798360   -2.334043   -0.001065
      7          6           0       -0.386113   -1.439110   -0.000518
      8          6           0       -0.370136    0.028323   -0.000546
      9          6           0       -1.632464    0.762659    0.000024
     10          6           0       -2.858318    0.080288    0.000906
     11          6           0       -2.885383   -1.341156    0.000962
     12          6           0       -1.688845   -2.057979    0.000000
     13          7           0       -1.658586    3.425366   -0.000620
     14          6           0       -1.640944    2.225146   -0.000408
     15          1           0        0.945257    1.784046   -0.000427
     16          1           0        2.968116   -2.040948    0.000392
     17          1           0       -3.797062    0.650685    0.001497
     18          1           0       -3.852467   -1.859695    0.001725
     19          1           0       -1.714027   -3.158286   -0.000258
 ---------------------------------------------------------------------
 Rotational constants (GHZ):      1.0789078      0.5549137      0.3664420

 **********************************************************************

            Population analysis using the SCF density.

 **********************************************************************

 Orbital symmetries:
       Occupied  (A) (A) (A) (A) (A) (A) (A) (A) (A) (A) (A) (A)
                 (A) (A) (A) (A) (A) (A) (A) (A) (A) (A) (A) (A)
                 (A) (A) (A) (A) (A) (A) (A) (A) (A) (A) (A) (A)
                 (A) (A) (A) (A) (A) (A) (A) (A) (A) (A)
       Virtual   (A) (A) (A) (A) (A) (A) (A) (A) (A) (A) (A) (A)
                 (A) (A) (A) (A) (A) (A) (A) (A) (A) (A) (A) (A)
                 (A) (A) (A) (A) (A)
 The electronic state is 1-A.
 Alpha  occ. eigenvalues --  -13.98916 -13.96853  -9.90212  -9.89395  -9.88557
 Alpha  occ. eigenvalues --   -9.87537  -9.87358  -9.86760  -9.86668  -9.86393
 Alpha  occ. eigenvalues --   -9.84251  -9.83038  -9.79591  -9.66690  -0.72460
 Alpha  occ. eigenvalues --   -0.70648  -0.66907  -0.61850  -0.57923  -0.54669
 Alpha  occ. eigenvalues --   -0.50204  -0.45421  -0.42023  -0.40043  -0.34090
 Alpha  occ. eigenvalues --   -0.31581  -0.30964  -0.27874  -0.24495  -0.23450
 Alpha  occ. eigenvalues --   -0.20964  -0.20389  -0.19195  -0.16787  -0.16545
 Alpha  occ. eigenvalues --   -0.14557  -0.14450  -0.13938  -0.13537  -0.11802
 Alpha  occ. eigenvalues --   -0.10248  -0.09582  -0.06327  -0.02815   0.02066
 Alpha  occ. eigenvalues --    0.11141
 Alpha virt. eigenvalues --    0.16630   0.21257   0.25776   0.25923   0.27930
 Alpha virt. eigenvalues --    0.29049   0.34380   0.37778   0.43210   0.46011
 Alpha virt. eigenvalues --    0.46042   0.49610   0.53296   0.56688   0.57941
 Alpha virt. eigenvalues --    0.58851   0.60654   0.63633   0.66558   0.69191
 Alpha virt. eigenvalues --    0.71097   0.76202   0.78015   0.81893   0.85040
 Alpha virt. eigenvalues --    0.91404   0.92942   1.06658   1.08375
          Condensed to atoms (all electrons):
               1          2          3          4          5          6
     1  N    6.606044   0.658408  -0.000023  -0.010721  -0.000159  -0.000001
     2  C    0.658408   4.953827  -0.031328   0.409185  -0.025700   0.000665
     3  C   -0.000023  -0.031328   4.867414   0.500216  -0.030316  -0.005943
     4  C   -0.010721   0.409185   0.500216   4.802907   0.449902  -0.017722
     5  C   -0.000159  -0.025700  -0.030316   0.449902   4.948981   0.450663
     6  C   -0.000001   0.000665  -0.005943  -0.017722   0.450663   5.478953
     7  C    0.000000   0.000046  -0.029831  -0.013387  -0.029128   0.392561
     8  C   -0.000002   0.000949   0.483993  -0.028795  -0.011680  -0.017389
     9  C    0.000000  -0.000005  -0.029203   0.000797   0.000047   0.000543
    10  C    0.000000   0.000000   0.000688  -0.000007   0.000001   0.000014
    11  C    0.000000   0.000000   0.000037   0.000000  -0.000015   0.000749
    12  C    0.000000   0.000000   0.000887   0.000017   0.001404  -0.034566
    13  N    0.000000   0.000000  -0.000116   0.000000   0.000000   0.000000
    14  C    0.000000   0.000000  -0.004109   0.000016   0.000000  -0.000003
    15  H    0.000068  -0.003660   0.387372  -0.024274   0.001117   0.000000
    16  H    0.000103  -0.003775   0.001296  -0.035697   0.381672  -0.031684
    17  H    0.000000   0.000000  -0.000016   0.000000   0.000000   0.000000
    18  H    0.000000   0.000000   0.000001   0.000000   0.000000  -0.000017
    19  H    0.000000   0.000000  -0.000017   0.000000   0.000032  -0.001532
               7          8          9         10         11         12
     1  N    0.000000  -0.000002   0.000000   0.000000   0.000000   0.000000
     2  C    0.000046   0.000949  -0.000005   0.000000   0.000000   0.000000
     3  C   -0.029831   0.483993  -0.029203   0.000688   0.000037   0.000887
     4  C   -0.013387  -0.028795   0.000797  -0.000007   0.000000   0.000017
     5  C   -0.029128  -0.011680   0.000047   0.000001  -0.000015   0.001404
     6  C    0.392561  -0.017389   0.000543   0.000014   0.000749  -0.034566
     7  C    4.899893   0.436316  -0.022145  -0.008097  -0.025247   0.464178
     8  C    0.436316   4.824191   0.446702  -0.027761  -0.008052  -0.033741
     9  C   -0.022145   0.446702   4.786601   0.509787  -0.029400  -0.010054
    10  C   -0.008097  -0.027761   0.509787   4.826001   0.481474  -0.028968
    11  C   -0.025247  -0.008052  -0.029400   0.481474   4.841367   0.513737
    12  C    0.464178  -0.033741  -0.010054  -0.028968   0.513737   4.839755
    13  N   -0.000001  -0.000014  -0.010729  -0.000134  -0.000001   0.000000
    14  C    0.000655  -0.025831   0.417248  -0.031585   0.000921   0.000005
    15  H    0.001146  -0.024540  -0.003594   0.000017  -0.000001  -0.000020
    16  H    0.002237   0.000011   0.000001   0.000000   0.000000  -0.000015
    17  H    0.000023   0.001222  -0.025556   0.386775  -0.024436   0.001348
    18  H    0.001250   0.000006   0.001329  -0.026048   0.387725  -0.024980
    19  H   -0.025824   0.001438   0.000031   0.001449  -0.026831   0.383448
              13         14         15         16         17         18
     1  N    0.000000   0.000000   0.000068   0.000103   0.000000   0.000000
     2  C    0.000000   0.000000  -0.003660  -0.003775   0.000000   0.000000
     3  C   -0.000116  -0.004109   0.387372   0.001296  -0.000016   0.000001
     4  C    0.000000   0.000016  -0.024274  -0.035697   0.000000   0.000000
     5  C    0.000000   0.000000   0.001117   0.381672   0.000000   0.000000
     6  C    0.000000  -0.000003   0.000000  -0.031684   0.000000  -0.000017
     7  C   -0.000001   0.000655   0.001146   0.002237   0.000023   0.001250
     8  C   -0.000014  -0.025831  -0.024540   0.000011   0.001222   0.000006
     9  C   -0.010729   0.417248  -0.003594   0.000001  -0.025556   0.001329
    10  C   -0.000134  -0.031585   0.000017   0.000000   0.386775  -0.026048
    11  C   -0.000001   0.000921  -0.000001   0.000000  -0.024436   0.387725
    12  C    0.000000   0.000005  -0.000020  -0.000015   0.001348  -0.024980
    13  N    6.592120   0.659117  -0.000138   0.000000   0.000059   0.000000
    14  C    0.659117   4.938234   0.001431   0.000000  -0.003749  -0.000018
    15  H   -0.000138   0.001431   0.606118  -0.000039  -0.000001   0.000000
    16  H    0.000000   0.000000  -0.000039   0.661771   0.000000   0.000000
    17  H    0.000059  -0.003749  -0.000001   0.000000   0.606799  -0.003385
    18  H    0.000000  -0.000018   0.000000   0.000000  -0.003385   0.616941
    19  H    0.000000   0.000001   0.000000  -0.000003  -0.000034  -0.003749
              19
     1  N    0.000000
     2  C    0.000000
     3  C   -0.000017
     4  C    0.000000
     5  C    0.000032
     6  C   -0.001532
     7  C   -0.025824
     8  C    0.001438
     9  C    0.000031
    10  C    0.001449
    11  C   -0.026831
    12  C    0.383448
    13  N    0.000000
    14  C    0.000001
    15  H    0.000000
    16  H   -0.000003
    17  H   -0.000034
    18  H   -0.003749
    19  H    0.604098
 Mulliken charges:
               1
     1  N   -0.253717
     2  C    0.041388
     3  C   -0.111003
     4  C   -0.032438
     5  C   -0.136820
     6  C   -0.215291
     7  C   -0.044643
     8  C   -0.017025
     9  C   -0.032398
    10  C   -0.083607
    11  C   -0.112027
    12  C   -0.072433
    13  N   -0.240164
    14  C    0.047670
    15  H    0.058997
    16  H    0.024121
    17  H    0.060951
    18  H    0.050946
    19  H    0.067493
 Sum of Mulliken charges =  -1.00000
 Mulliken charges with hydrogens summed into heavy atoms:
               1
     1  N   -0.253717
     2  C    0.041388
     3  C   -0.052006
     4  C   -0.032438
     5  C   -0.112699
     6  C   -0.215291
     7  C   -0.044643
     8  C   -0.017025
     9  C   -0.032398
    10  C   -0.022656
    11  C   -0.061081
    12  C   -0.004940
    13  N   -0.240164
    14  C    0.047670
 Electronic spatial extent (au):  <R**2>=           2787.2525
 Charge=             -1.0000 electrons
 Dipole moment (field-independent basis, Debye):
    X=             -4.9767    Y=              0.2535    Z=              0.0021  Tot=              4.9832
 Quadrupole moment (field-independent basis, Debye-Ang):
   XX=           -105.9718   YY=           -105.8471   ZZ=            -74.1671
   XY=              3.8827   XZ=             -0.0061   YZ=             -0.0060
 Traceless Quadrupole moment (field-independent basis, Debye-Ang):
   XX=            -10.6431   YY=            -10.5185   ZZ=             21.1616
   XY=              3.8827   XZ=             -0.0061   YZ=             -0.0060
 Octapole moment (field-independent basis, Debye-Ang**2):
  XXX=           -132.2420  YYY=            -14.6693  ZZZ=              0.0007  XYY=              5.6091
  XXY=            -36.6686  XXZ=             -0.0187  XZZ=              3.1118  YZZ=              4.6323
  YYZ=              0.0332  XYZ=             -0.0205
 Hexadecapole moment (field-independent basis, Debye-Ang**3):
 XXXX=          -2918.7291 YYYY=          -1584.1560 ZZZZ=            -58.3833 XXXY=           -159.2912
 XXXZ=             -0.1784 YYYX=            152.4227 YYYZ=             -0.0239 ZZZX=              0.0176
 ZZZY=             -0.0033 XXYY=           -673.9918 XXZZ=           -396.0440 YYZZ=           -211.8766
 XXYZ=             -0.0469 YYXZ=             -0.0119 ZZXY=             -1.2298
 N-N= 6.947036481063D+02 E-N=-2.711674740146D+03  KE= 5.547458910467D+02
 1\1\GINC-N051\FOpt\RB3LYP\STO-3G\C12H5N2(1-)\R2532\15-Jun-2021\0\\#N B
 3LYP/STO-3G OPT\\2Naph\\-1,1\N,3.3888546577,-0.8760998375,-1.089619595
 3\C,4.3030964319,-0.4092668079,-0.4671952874\C,5.2580706159,0.93675363
 93,1.3821826927\C,5.4672475631,0.1286003116,0.2470222278\C,6.800618356
 2,-0.1723468218,-0.2160807981\C,8.0265161884,0.2701787099,0.362909373\
 C,7.7283175575,1.1130114686,1.5480633825\C,6.3970182665,1.4517933062,2
 .0642848931\C,6.2772568758,2.2980836862,3.2484183742\C,7.420443389,2.7
 899061774,3.8961718141\C,8.7150043678,2.4679348397,3.4045600167\C,8.84
 72686358,1.6604958827,2.2749190906\N,3.8852881387,2.9416714335,4.22564
 60054\C,4.9609504917,2.6483856041,3.7809269847\H,4.2465445948,1.167154
 9749,1.7367680355\H,6.8285820854,-0.8143811078,-1.1143961195\H,7.30944
 62599,3.4251461367,4.7854081303\H,9.5990112341,2.8606744588,3.92265530
 99\H,9.8511842897,1.4132739452,1.8976354698\\Version=ES64L-G09RevD.01\
 State=1-A\HF=-562.5142323\RMSD=1.794e-09\RMSF=4.611e-05\Dipole=0.75223
 81,1.0666515,1.4629152\Quadrupole=-5.587606,6.9867813,-1.3991753,0.714
 0047,1.6800866,-12.2333143\PG=C01 [X(C12H5N2)]\\@


 What some people mistake for the high cost
 of living is really the cost of living high.
                              -- Doug Larson
 Job cpu time:       0 days  0 hours  5 minutes  1.1 seconds.
 File lengths (MBytes):  RWF=      5 Int=      0 D2E=      0 Chk=      2 Scr=      1
 Normal termination of Gaussian 09 at Tue Jun 15 11:13:58 2021.
