 Entering Gaussian System, Link 0=/usr/local/apps//g09/g09
 Input=40.com
 Output=40.out
 Initial command:
 /usr/local/apps//g09/l1.exe "/tmp/bnp.472641.sequoia/Gau-15812.inp" -scrdir="/tmp/bnp.472641.sequoia/"
 Entering Link 1 = /usr/local/apps//g09/l1.exe PID=     15813.
  
 Copyright (c) 1988,1990,1992,1993,1995,1998,2003,2009,2013,
            Gaussian, Inc.  All Rights Reserved.
  
 This is part of the Gaussian(R) 09 program.  It is based on
 the Gaussian(R) 03 system (copyright 2003, Gaussian, Inc.),
 the Gaussian(R) 98 system (copyright 1998, Gaussian, Inc.),
 the Gaussian(R) 94 system (copyright 1995, Gaussian, Inc.),
 the Gaussian 92(TM) system (copyright 1992, Gaussian, Inc.),
 the Gaussian 90(TM) system (copyright 1990, Gaussian, Inc.),
 the Gaussian 88(TM) system (copyright 1988, Gaussian, Inc.),
 the Gaussian 86(TM) system (copyright 1986, Carnegie Mellon
 University), and the Gaussian 82(TM) system (copyright 1983,
 Carnegie Mellon University). Gaussian is a federally registered
 trademark of Gaussian, Inc.
  
 This software contains proprietary and confidential information,
 including trade secrets, belonging to Gaussian, Inc.
  
 This software is provided under written license and may be
 used, copied, transmitted, or stored only in accord with that
 written license.
  
 The following legend is applicable only to US Government
 contracts under FAR:
  
                    RESTRICTED RIGHTS LEGEND
  
 Use, reproduction and disclosure by the US Government is
 subject to restrictions as set forth in subparagraphs (a)
 and (c) of the Commercial Computer Software - Restricted
 Rights clause in FAR 52.227-19.
  
 Gaussian, Inc.
 340 Quinnipiac St., Bldg. 40, Wallingford CT 06492
  
  
 ---------------------------------------------------------------
 Warning -- This program may not be used in any manner that
 competes with the business of Gaussian, Inc. or will provide
 assistance to any competitor of Gaussian, Inc.  The licensee
 of this program is prohibited from giving any competitor of
 Gaussian, Inc. access to this program.  By using this program,
 the user acknowledges that Gaussian, Inc. is engaged in the
 business of creating and licensing software in the field of
 computational chemistry and represents and warrants to the
 licensee that it is not a competitor of Gaussian, Inc. and that
 it will not use this program in any manner prohibited above.
 ---------------------------------------------------------------
  

 Cite this work as:
 Gaussian 09, Revision D.01,
 M. J. Frisch, G. W. Trucks, H. B. Schlegel, G. E. Scuseria, 
 M. A. Robb, J. R. Cheeseman, G. Scalmani, V. Barone, B. Mennucci, 
 G. A. Petersson, H. Nakatsuji, M. Caricato, X. Li, H. P. Hratchian, 
 A. F. Izmaylov, J. Bloino, G. Zheng, J. L. Sonnenberg, M. Hada, 
 M. Ehara, K. Toyota, R. Fukuda, J. Hasegawa, M. Ishida, T. Nakajima, 
 Y. Honda, O. Kitao, H. Nakai, T. Vreven, J. A. Montgomery, Jr., 
 J. E. Peralta, F. Ogliaro, M. Bearpark, J. J. Heyd, E. Brothers, 
 K. N. Kudin, V. N. Staroverov, T. Keith, R. Kobayashi, J. Normand, 
 K. Raghavachari, A. Rendell, J. C. Burant, S. S. Iyengar, J. Tomasi, 
 M. Cossi, N. Rega, J. M. Millam, M. Klene, J. E. Knox, J. B. Cross, 
 V. Bakken, C. Adamo, J. Jaramillo, R. Gomperts, R. E. Stratmann, 
 O. Yazyev, A. J. Austin, R. Cammi, C. Pomelli, J. W. Ochterski, 
 R. L. Martin, K. Morokuma, V. G. Zakrzewski, G. A. Voth, 
 P. Salvador, J. J. Dannenberg, S. Dapprich, A. D. Daniels, 
 O. Farkas, J. B. Foresman, J. V. Ortiz, J. Cioslowski, 
 and D. J. Fox, Gaussian, Inc., Wallingford CT, 2013.
 
 ******************************************
 Gaussian 09:  ES64L-G09RevD.01 24-Apr-2013
                15-Jun-2021 
 ******************************************
 -------------------
 #N B3LYP/STO-3G OPT
 -------------------
 1/14=-1,18=20,19=15,26=3,38=1/1,3;
 2/9=110,12=2,17=6,18=5,40=1/2;
 3/6=3,11=2,16=1,25=1,30=1,71=1,74=-5/1,2,3;
 4//1;
 5/5=2,38=5/2;
 6/7=2,8=2,9=2,10=2,28=1/1;
 7//1,2,3,16;
 1/14=-1,18=20,19=15,26=3/3(2);
 2/9=110/2;
 99//99;
 2/9=110/2;
 3/6=3,11=2,16=1,25=1,30=1,71=1,74=-5/1,2,3;
 4/5=5,16=3,69=1/1;
 5/5=2,38=5/2;
 7//1,2,3,16;
 1/14=-1,18=20,19=15,26=3/3(-5);
 2/9=110/2;
 6/7=2,8=2,9=2,10=2,19=2,28=1/1;
 99/9=1/99;
 -----
 2Naph
 -----
 Symbolic Z-matrix:
 Charge = -1 Multiplicity = 1
 N                     1.15412  -0.09692   0.00869 
 C                     2.31335  -0.04976   0.00823 
 C                     4.51048  -1.15338   0.00732 
 C                     3.74545   0.01761   0.00765 
 C                     4.38331   1.25567   0.00799 
 C                     5.77878   1.3242    0.00788 
 C                     6.57707   0.15489   0.0069 
 C                     5.9161   -1.1002    0.007 
 C                     6.67212  -2.28302   0.00664 
 C                     8.0635   -2.2451    0.0064 
 C                     8.72576  -1.02509   0.00617 
 C                     7.99675   0.17116   0.00637 
 N                     9.31561   2.40828   0.00634 
 C                     8.73012   1.40598   0.00625 
 H                     4.00389  -2.11895   0.00754 
 H                     3.80413   2.17838   0.00869 
 H                     6.23573   2.3134    0.00783 
 H                     6.18683  -3.25714   0.00666 
 H                     9.81377  -1.01675   0.00579 
 

 GradGradGradGradGradGradGradGradGradGradGradGradGradGradGradGradGradGrad
 Berny optimization.
 Initialization pass.
                           ----------------------------
                           !    Initial Parameters    !
                           ! (Angstroms and Degrees)  !
 --------------------------                            --------------------------
 ! Name  Definition              Value          Derivative Info.                !
 --------------------------------------------------------------------------------
 ! R1    R(1,2)                  1.1602         estimate D2E/DX2                !
 ! R2    R(2,4)                  1.4337         estimate D2E/DX2                !
 ! R3    R(3,4)                  1.3987         estimate D2E/DX2                !
 ! R4    R(3,8)                  1.4066         estimate D2E/DX2                !
 ! R5    R(3,15)                 1.0904         estimate D2E/DX2                !
 ! R6    R(4,5)                  1.3927         estimate D2E/DX2                !
 ! R7    R(5,6)                  1.3972         estimate D2E/DX2                !
 ! R8    R(5,16)                 1.0894         estimate D2E/DX2                !
 ! R9    R(6,7)                  1.4158         estimate D2E/DX2                !
 ! R10   R(6,17)                 1.0896         estimate D2E/DX2                !
 ! R11   R(7,8)                  1.4185         estimate D2E/DX2                !
 ! R12   R(7,12)                 1.4198         estimate D2E/DX2                !
 ! R13   R(8,9)                  1.4038         estimate D2E/DX2                !
 ! R14   R(9,10)                 1.3919         estimate D2E/DX2                !
 ! R15   R(9,18)                 1.0883         estimate D2E/DX2                !
 ! R16   R(10,11)                1.3882         estimate D2E/DX2                !
 ! R17   R(11,12)                1.4009         estimate D2E/DX2                !
 ! R18   R(11,19)                1.088          estimate D2E/DX2                !
 ! R19   R(12,14)                1.4362         estimate D2E/DX2                !
 ! R20   R(13,14)                1.1608         estimate D2E/DX2                !
 ! A1    A(4,3,8)              120.9907         estimate D2E/DX2                !
 ! A2    A(4,3,15)             119.1587         estimate D2E/DX2                !
 ! A3    A(8,3,15)             119.8506         estimate D2E/DX2                !
 ! A4    A(2,4,3)              120.464          estimate D2E/DX2                !
 ! A5    A(2,4,5)              119.9513         estimate D2E/DX2                !
 ! A6    A(3,4,5)              119.5847         estimate D2E/DX2                !
 ! A7    A(4,5,6)              120.0694         estimate D2E/DX2                !
 ! A8    A(4,5,16)             120.6258         estimate D2E/DX2                !
 ! A9    A(6,5,16)             119.3048         estimate D2E/DX2                !
 ! A10   A(5,6,7)              121.5099         estimate D2E/DX2                !
 ! A11   A(5,6,17)             117.6055         estimate D2E/DX2                !
 ! A12   A(7,6,17)             120.8845         estimate D2E/DX2                !
 ! A13   A(6,7,8)              117.9059         estimate D2E/DX2                !
 ! A14   A(6,7,12)             123.6648         estimate D2E/DX2                !
 ! A15   A(8,7,12)             118.4293         estimate D2E/DX2                !
 ! A16   A(3,8,7)              119.9394         estimate D2E/DX2                !
 ! A17   A(3,8,9)              120.4187         estimate D2E/DX2                !
 ! A18   A(7,8,9)              119.6419         estimate D2E/DX2                !
 ! A19   A(8,9,10)             121.0243         estimate D2E/DX2                !
 ! A20   A(8,9,18)             120.9329         estimate D2E/DX2                !
 ! A21   A(10,9,18)            118.0428         estimate D2E/DX2                !
 ! A22   A(9,10,11)            120.0556         estimate D2E/DX2                !
 ! A23   A(10,11,12)           120.1468         estimate D2E/DX2                !
 ! A24   A(10,11,19)           118.9337         estimate D2E/DX2                !
 ! A25   A(12,11,19)           120.9195         estimate D2E/DX2                !
 ! A26   A(7,12,11)            120.7021         estimate D2E/DX2                !
 ! A27   A(7,12,14)            121.363          estimate D2E/DX2                !
 ! A28   A(11,12,14)           117.9349         estimate D2E/DX2                !
 ! A29   L(1,2,4,16,-1)        179.6363         estimate D2E/DX2                !
 ! A30   L(12,14,13,16,-1)     179.5847         estimate D2E/DX2                !
 ! A31   L(1,2,4,16,-2)        180.0008         estimate D2E/DX2                !
 ! A32   L(12,14,13,16,-2)     179.9903         estimate D2E/DX2                !
 ! D1    D(8,3,4,2)           -179.9881         estimate D2E/DX2                !
 ! D2    D(8,3,4,5)             -0.0155         estimate D2E/DX2                !
 ! D3    D(15,3,4,2)            -0.0018         estimate D2E/DX2                !
 ! D4    D(15,3,4,5)           179.9708         estimate D2E/DX2                !
 ! D5    D(4,3,8,7)             -0.0051         estimate D2E/DX2                !
 ! D6    D(4,3,8,9)           -179.9986         estimate D2E/DX2                !
 ! D7    D(15,3,8,7)          -179.9913         estimate D2E/DX2                !
 ! D8    D(15,3,8,9)             0.0152         estimate D2E/DX2                !
 ! D9    D(2,4,5,6)            179.9785         estimate D2E/DX2                !
 ! D10   D(2,4,5,16)            -0.0003         estimate D2E/DX2                !
 ! D11   D(3,4,5,6)              0.0057         estimate D2E/DX2                !
 ! D12   D(3,4,5,16)          -179.9731         estimate D2E/DX2                !
 ! D13   D(4,5,6,7)              0.025          estimate D2E/DX2                !
 ! D14   D(4,5,6,17)           179.9806         estimate D2E/DX2                !
 ! D15   D(16,5,6,7)          -179.9959         estimate D2E/DX2                !
 ! D16   D(16,5,6,17)           -0.0403         estimate D2E/DX2                !
 ! D17   D(5,6,7,8)             -0.0446         estimate D2E/DX2                !
 ! D18   D(5,6,7,12)           179.9817         estimate D2E/DX2                !
 ! D19   D(17,6,7,8)          -179.9988         estimate D2E/DX2                !
 ! D20   D(17,6,7,12)            0.0275         estimate D2E/DX2                !
 ! D21   D(6,7,8,3)              0.0343         estimate D2E/DX2                !
 ! D22   D(6,7,8,9)           -179.9722         estimate D2E/DX2                !
 ! D23   D(12,7,8,3)          -179.9906         estimate D2E/DX2                !
 ! D24   D(12,7,8,9)             0.0029         estimate D2E/DX2                !
 ! D25   D(6,7,12,11)          179.9634         estimate D2E/DX2                !
 ! D26   D(6,7,12,14)           -0.026          estimate D2E/DX2                !
 ! D27   D(8,7,12,11)           -0.0102         estimate D2E/DX2                !
 ! D28   D(8,7,12,14)         -179.9996         estimate D2E/DX2                !
 ! D29   D(3,8,9,10)          -179.9962         estimate D2E/DX2                !
 ! D30   D(3,8,9,18)            -0.0035         estimate D2E/DX2                !
 ! D31   D(7,8,9,10)             0.0103         estimate D2E/DX2                !
 ! D32   D(7,8,9,18)          -179.997          estimate D2E/DX2                !
 ! D33   D(8,9,10,11)           -0.0165         estimate D2E/DX2                !
 ! D34   D(18,9,10,11)         179.9907         estimate D2E/DX2                !
 ! D35   D(9,10,11,12)           0.0091         estimate D2E/DX2                !
 ! D36   D(9,10,11,19)        -179.9883         estimate D2E/DX2                !
 ! D37   D(10,11,12,7)           0.0043         estimate D2E/DX2                !
 ! D38   D(10,11,12,14)        179.994          estimate D2E/DX2                !
 ! D39   D(19,11,12,7)        -179.9984         estimate D2E/DX2                !
 ! D40   D(19,11,12,14)         -0.0087         estimate D2E/DX2                !
 --------------------------------------------------------------------------------
 Trust Radius=3.00D-01 FncErr=1.00D-07 GrdErr=1.00D-06
 Number of steps in this run=    102 maximum allowed number of steps=    114.
 GradGradGradGradGradGradGradGradGradGradGradGradGradGradGradGradGradGrad

                          Input orientation:                          
 ---------------------------------------------------------------------
 Center     Atomic      Atomic             Coordinates (Angstroms)
 Number     Number       Type             X           Y           Z
 ---------------------------------------------------------------------
      1          7           0        1.154120   -0.096920    0.008690
      2          6           0        2.313350   -0.049760    0.008230
      3          6           0        4.510480   -1.153380    0.007320
      4          6           0        3.745450    0.017610    0.007650
      5          6           0        4.383310    1.255670    0.007990
      6          6           0        5.778780    1.324200    0.007880
      7          6           0        6.577070    0.154890    0.006900
      8          6           0        5.916100   -1.100200    0.007000
      9          6           0        6.672120   -2.283020    0.006640
     10          6           0        8.063500   -2.245100    0.006400
     11          6           0        8.725760   -1.025090    0.006170
     12          6           0        7.996750    0.171160    0.006370
     13          7           0        9.315610    2.408280    0.006340
     14          6           0        8.730120    1.405980    0.006250
     15          1           0        4.003890   -2.118950    0.007540
     16          1           0        3.804130    2.178380    0.008690
     17          1           0        6.235730    2.313400    0.007830
     18          1           0        6.186830   -3.257140    0.006660
     19          1           0        9.813770   -1.016750    0.005790
 ---------------------------------------------------------------------
                    Distance matrix (angstroms):
                    1          2          3          4          5
     1  N    0.000000
     2  C    1.160189   0.000000
     3  C    3.518702   2.458731   0.000000
     4  C    2.593860   1.433684   1.398745   0.000000
     5  C    3.501024   2.447219   2.412404   1.392716   0.000000
     6  C    4.838085   3.727864   2.783341   2.416942   1.397152
     7  C    5.428793   4.268629   2.445887   2.834946   2.454445
     8  C    4.866521   3.752763   1.406626   2.441561   2.810617
     9  C    5.935264   4.897584   2.439011   3.722673   4.214378
    10  C    7.235621   6.154977   3.716962   4.874978   5.079290
    11  C    7.628318   6.486160   4.217232   5.088292   4.904971
    12  C    6.847880   5.687692   3.729408   4.254072   3.772680
    13  N    8.537327   7.421160   5.981195   6.061517   5.065185
    14  C    7.723632   6.579827   4.935148   5.174409   4.349408
    15  H    3.494252   2.671979   1.090394   2.152134   3.395883
    16  H    3.492784   2.680864   3.405812   2.161567   1.089424
    17  H    5.624269   4.579257   3.872344   3.387056   2.133132
    18  H    5.942656   5.029029   2.689973   4.084645   4.859850
    19  H    8.708366   7.562498   5.305050   6.155844   5.886747
                    6          7          8          9         10
     6  C    0.000000
     7  C    1.415823   0.000000
     8  C    2.428286   1.418496   0.000000
     9  C    3.716193   2.439762   1.403791   0.000000
    10  C    4.237906   2.823017   2.433541   1.391897   0.000000
    11  C    3.768801   2.451371   2.810664   2.408283   1.388169
    12  C    2.499779   1.419773   2.438332   2.788843   2.417182
    13  N    3.699243   3.546459   4.885294   5.384825   4.818892
    14  C    2.952473   2.490151   3.768242   4.224226   3.711437
    15  H    3.873695   3.433891   2.166656   2.673270   4.061570
    16  H    2.151480   3.432741   3.899937   5.303721   6.140799
    17  H    1.089642   2.185333   3.428532   4.617089   4.911280
    18  H    4.599476   3.434274   2.173864   1.088309   2.132162
    19  H    4.664890   3.442233   3.898563   3.387242   2.138291
                   11         12         13         14         15
    11  C    0.000000
    12  C    1.400882   0.000000
    13  N    3.483669   2.596940   0.000000
    14  C    2.431074   1.436180   1.160777   0.000000
    15  H    4.846915   4.602992   6.979268   5.895963   0.000000
    16  H    5.872365   4.648333   5.516273   4.986179   4.301971
    17  H    4.164825   2.773154   3.081341   2.654316   4.962543
    18  H    3.380564   3.876732   6.471959   5.311592   2.461850
    19  H    1.088042   2.170874   3.461068   2.654038   5.913506
                   16         17         18         19
    16  H    0.000000
    17  H    2.435346   0.000000
    18  H    5.934824   5.570755   0.000000
    19  H    6.806220   4.887972   4.263102   0.000000
 Stoichiometry    C12H5N2(1-)
 Framework group  C1[X(C12H5N2)]
 Deg. of freedom    51
 Full point group                 C1      NOp   1
 Largest Abelian subgroup         C1      NOp   1
 Largest concise Abelian subgroup C1      NOp   1
                         Standard orientation:                         
 ---------------------------------------------------------------------
 Center     Atomic      Atomic             Coordinates (Angstroms)
 Number     Number       Type             X           Y           Z
 ---------------------------------------------------------------------
      1          7           0        4.812923   -0.293315   -0.000012
      2          6           0        3.653086   -0.264754   -0.000104
      3          6           0        1.532628    0.979842   -0.000145
      4          6           0        2.219641   -0.238559   -0.000232
      5          6           0        1.502377   -1.432372    0.000134
      6          6           0        0.105409   -1.409725    0.000465
      7          6           0       -0.614903   -0.190830   -0.000088
      8          6           0        0.126533    1.018469   -0.000019
      9          6           0       -0.550717    2.248088    0.000036
     10          6           0       -1.941607    2.301013    0.000240
     11          6           0       -2.682042    1.126803    0.000047
     12          6           0       -2.032621   -0.114455   -0.000162
     13          7           0       -3.494607   -2.260776   -0.000091
     14          6           0       -2.844980   -1.298804   -0.000225
     15          1           0        2.101127    1.910309    0.000051
     16          1           0        2.020132   -2.390899    0.000514
     17          1           0       -0.415097   -2.367009    0.000419
     18          1           0       -0.002915    3.188476    0.000041
     19          1           0       -3.768279    1.189456    0.000016
 ---------------------------------------------------------------------
 Rotational constants (GHZ):      1.5144178      0.4680507      0.3575463
 Standard basis: STO-3G (5D, 7F)
 There are    75 symmetry adapted cartesian basis functions of A   symmetry.
 There are    75 symmetry adapted basis functions of A   symmetry.
    75 basis functions,   225 primitive gaussians,    75 cartesian basis functions
    46 alpha electrons       46 beta electrons
       nuclear repulsion energy       706.3921340883 Hartrees.
 NAtoms=   19 NActive=   19 NUniq=   19 SFac= 1.00D+00 NAtFMM=   60 NAOKFM=F Big=F
 Integral buffers will be    131072 words long.
 Raffenetti 2 integral format.
 Two-electron integral symmetry is turned on.
 One-electron integrals computed using PRISM.
 NBasis=    75 RedAO= T EigKep=  1.55D-01  NBF=    75
 NBsUse=    75 1.00D-06 EigRej= -1.00D+00 NBFU=    75
 ExpMin= 1.69D-01 ExpMax= 9.91D+01 ExpMxC= 9.91D+01 IAcc=1 IRadAn=         1 AccDes= 0.00D+00
 Harris functional with IExCor=  402 and IRadAn=       1 diagonalized for initial guess.
 HarFok:  IExCor=  402 AccDes= 0.00D+00 IRadAn=         1 IDoV= 1 UseB2=F ITyADJ=14
 ICtDFT=  3500011 ScaDFX=  1.000000  1.000000  1.000000  1.000000
 FoFCou: FMM=F IPFlag=           0 FMFlag=      100000 FMFlg1=           0
         NFxFlg=           0 DoJE=T BraDBF=F KetDBF=T FulRan=T
         wScrn=  0.000000 ICntrl=     500 IOpCl=  0 I1Cent=   200000004 NGrid=           0
         NMat0=    1 NMatS0=      1 NMatT0=    0 NMatD0=    1 NMtDS0=    0 NMtDT0=    0
 Petite list used in FoFCou.
 Keep R1 ints in memory in canonical form, NReq=4993994.
 Requested convergence on RMS density matrix=1.00D-08 within 128 cycles.
 Requested convergence on MAX density matrix=1.00D-06.
 Requested convergence on             energy=1.00D-06.
 No special actions if energy rises.
 Integral accuracy reduced to 1.0D-05 until final iterations.
 EnCoef did     5 forward-backward iterations
 EnCoef did     5 forward-backward iterations
 EnCoef did   100 forward-backward iterations
 Rare condition: small coef for last iteration:  0.000D+00
 Rare condition: small coef for last iteration:  0.000D+00
 Initial convergence to 1.0D-05 achieved.  Increase integral accuracy.
 SCF Done:  E(RB3LYP) =  -562.480161499     A.U. after   28 cycles
            NFock= 28  Conv=0.86D-08     -V/T= 2.0128

 **********************************************************************

            Population analysis using the SCF density.

 **********************************************************************

 Orbital symmetries:
       Occupied  (A) (A) (A) (A) (A) (A) (A) (A) (A) (A) (A) (A)
                 (A) (A) (A) (A) (A) (A) (A) (A) (A) (A) (A) (A)
                 (A) (A) (A) (A) (A) (A) (A) (A) (A) (A) (A) (A)
                 (A) (A) (A) (A) (A) (A) (A) (A) (A) (A)
       Virtual   (A) (A) (A) (A) (A) (A) (A) (A) (A) (A) (A) (A)
                 (A) (A) (A) (A) (A) (A) (A) (A) (A) (A) (A) (A)
                 (A) (A) (A) (A) (A)
 The electronic state is 1-A.
 Alpha  occ. eigenvalues --  -14.00558 -13.96448  -9.91388  -9.91123  -9.88239
 Alpha  occ. eigenvalues --   -9.88053  -9.87755  -9.87659  -9.87335  -9.87249
 Alpha  occ. eigenvalues --   -9.86426  -9.82379  -9.79764  -9.63708  -0.75643
 Alpha  occ. eigenvalues --   -0.72319  -0.69330  -0.63540  -0.59108  -0.56204
 Alpha  occ. eigenvalues --   -0.51618  -0.45896  -0.42817  -0.42221  -0.35621
 Alpha  occ. eigenvalues --   -0.34040  -0.29489  -0.27400  -0.26708  -0.24162
 Alpha  occ. eigenvalues --   -0.22650  -0.22486  -0.20424  -0.19256  -0.17627
 Alpha  occ. eigenvalues --   -0.16189  -0.15688  -0.15420  -0.13655  -0.12859
 Alpha  occ. eigenvalues --   -0.11171  -0.10658  -0.08518  -0.03140   0.01218
 Alpha  occ. eigenvalues --    0.15327
 Alpha virt. eigenvalues --    0.16635   0.20361   0.25020   0.26235   0.29628
 Alpha virt. eigenvalues --    0.30755   0.36803   0.39078   0.44389   0.48284
 Alpha virt. eigenvalues --    0.48322   0.52056   0.55707   0.57193   0.57977
 Alpha virt. eigenvalues --    0.61604   0.63797   0.64983   0.69805   0.72653
 Alpha virt. eigenvalues --    0.74451   0.78356   0.80476   0.85711   0.89032
 Alpha virt. eigenvalues --    0.97807   0.99311   1.13250   1.16672
          Condensed to atoms (all electrons):
               1          2          3          4          5          6
     1  N    6.571346   0.688390  -0.000166  -0.011392  -0.000133  -0.000001
     2  C    0.688390   4.892243  -0.030354   0.426574  -0.032341   0.001054
     3  C   -0.000166  -0.030354   4.834612   0.505406  -0.032443  -0.012130
     4  C   -0.011392   0.426574   0.505406   4.756246   0.481564  -0.030546
     5  C   -0.000133  -0.032341  -0.032443   0.481564   4.830907   0.521222
     6  C   -0.000001   0.001054  -0.012130  -0.030546   0.521222   4.822303
     7  C    0.000000   0.000011  -0.028449  -0.009484  -0.028101   0.481536
     8  C   -0.000001   0.000987   0.477602  -0.028712  -0.010330  -0.029381
     9  C    0.000000  -0.000008  -0.032318   0.000926   0.000048   0.000985
    10  C    0.000000   0.000000   0.001067  -0.000014   0.000000   0.000019
    11  C    0.000000   0.000000   0.000038   0.000000  -0.000007   0.000734
    12  C    0.000000   0.000000   0.001006   0.000029   0.000823  -0.028720
    13  N    0.000000   0.000000   0.000000   0.000000   0.000000  -0.000101
    14  C    0.000000   0.000000  -0.000005   0.000000   0.000019  -0.004737
    15  H    0.000069  -0.003786   0.390163  -0.027260   0.001427   0.000044
    16  H    0.000063  -0.003787   0.001426  -0.025870   0.391438  -0.025559
    17  H    0.000000  -0.000021   0.000048   0.001519  -0.027524   0.388859
    18  H    0.000000  -0.000001  -0.003953   0.000006  -0.000002  -0.000023
    19  H    0.000000   0.000000   0.000002   0.000000   0.000000  -0.000019
               7          8          9         10         11         12
     1  N    0.000000  -0.000001   0.000000   0.000000   0.000000   0.000000
     2  C    0.000011   0.000987  -0.000008   0.000000   0.000000   0.000000
     3  C   -0.028449   0.477602  -0.032318   0.001067   0.000038   0.001006
     4  C   -0.009484  -0.028712   0.000926  -0.000014   0.000000   0.000029
     5  C   -0.028101  -0.010330   0.000048   0.000000  -0.000007   0.000823
     6  C    0.481536  -0.029381   0.000985   0.000019   0.000734  -0.028720
     7  C    4.784733   0.467457  -0.032940  -0.012080  -0.030843   0.476067
     8  C    0.467457   4.805761   0.464794  -0.027591  -0.011987  -0.029859
     9  C   -0.032940   0.464794   4.898965   0.488016  -0.028138  -0.013538
    10  C   -0.012080  -0.027591   0.488016   5.438363   0.461659  -0.028600
    11  C   -0.030843  -0.011987  -0.028138   0.461659   4.874380   0.479267
    12  C    0.476067  -0.029859  -0.013538  -0.028600   0.479267   4.813494
    13  N   -0.000032  -0.000002   0.000000  -0.000002  -0.000219  -0.011472
    14  C   -0.031009   0.000920   0.000045   0.001152  -0.031620   0.421566
    15  H    0.001365  -0.025384  -0.004351   0.000036   0.000002  -0.000019
    16  H    0.001375   0.000039   0.000001   0.000000   0.000000  -0.000017
    17  H   -0.024272   0.001402  -0.000020   0.000000   0.000018  -0.003459
    18  H    0.001262  -0.033335   0.386989  -0.037463   0.002214  -0.000034
    19  H    0.001154  -0.000050   0.002190  -0.037644   0.387352  -0.033830
              13         14         15         16         17         18
     1  N    0.000000   0.000000   0.000069   0.000063   0.000000   0.000000
     2  C    0.000000   0.000000  -0.003786  -0.003787  -0.000021  -0.000001
     3  C    0.000000  -0.000005   0.390163   0.001426   0.000048  -0.003953
     4  C    0.000000   0.000000  -0.027260  -0.025870   0.001519   0.000006
     5  C    0.000000   0.000019   0.001427   0.391438  -0.027524  -0.000002
     6  C   -0.000101  -0.004737   0.000044  -0.025559   0.388859  -0.000023
     7  C   -0.000032  -0.031009   0.001365   0.001375  -0.024272   0.001262
     8  C   -0.000002   0.000920  -0.025384   0.000039   0.001402  -0.033335
     9  C    0.000000   0.000045  -0.004351   0.000001  -0.000020   0.386989
    10  C   -0.000002   0.001152   0.000036   0.000000   0.000000  -0.037463
    11  C   -0.000219  -0.031620   0.000002   0.000000   0.000018   0.002214
    12  C   -0.011472   0.421566  -0.000019  -0.000017  -0.003459  -0.000034
    13  N    6.603192   0.681982   0.000000   0.000000  -0.000102   0.000000
    14  C    0.681982   4.917582   0.000000   0.000000   0.001355   0.000002
    15  H    0.000000   0.000000   0.596720  -0.000039   0.000002   0.001339
    16  H    0.000000   0.000000  -0.000039   0.602317  -0.004302   0.000000
    17  H   -0.000102   0.001355   0.000002  -0.004302   0.596064   0.000001
    18  H    0.000000   0.000002   0.001339   0.000000   0.000001   0.655915
    19  H    0.000104  -0.003925   0.000000   0.000000  -0.000001  -0.000006
              19
     1  N    0.000000
     2  C    0.000000
     3  C    0.000002
     4  C    0.000000
     5  C    0.000000
     6  C   -0.000019
     7  C    0.001154
     8  C   -0.000050
     9  C    0.002190
    10  C   -0.037644
    11  C    0.387352
    12  C   -0.033830
    13  N    0.000104
    14  C   -0.003925
    15  H    0.000000
    16  H    0.000000
    17  H   -0.000001
    18  H   -0.000006
    19  H    0.644131
 Mulliken charges:
               1
     1  N   -0.248175
     2  C    0.061038
     3  C   -0.071551
     4  C   -0.038992
     5  C   -0.096567
     6  C   -0.085540
     7  C   -0.017749
     8  C   -0.022331
     9  C   -0.131646
    10  C   -0.246918
    11  C   -0.102848
    12  C   -0.042703
    13  N   -0.273348
    14  C    0.046675
    15  H    0.069672
    16  H    0.062917
    17  H    0.070435
    18  H    0.027089
    19  H    0.040543
 Sum of Mulliken charges =  -1.00000
 Mulliken charges with hydrogens summed into heavy atoms:
               1
     1  N   -0.248175
     2  C    0.061038
     3  C   -0.001879
     4  C   -0.038992
     5  C   -0.033650
     6  C   -0.015104
     7  C   -0.017749
     8  C   -0.022331
     9  C   -0.104558
    10  C   -0.246918
    11  C   -0.062305
    12  C   -0.042703
    13  N   -0.273348
    14  C    0.046675
 Electronic spatial extent (au):  <R**2>=           2833.5180
 Charge=             -1.0000 electrons
 Dipole moment (field-independent basis, Debye):
    X=              3.2079    Y=             -2.3306    Z=             -0.0005  Tot=              3.9651
 Quadrupole moment (field-independent basis, Debye-Ang):
   XX=           -128.8100   YY=            -96.4893   ZZ=            -73.8155
   XY=              2.3795   XZ=              0.0017   YZ=             -0.0025
 Traceless Quadrupole moment (field-independent basis, Debye-Ang):
   XX=            -29.1051   YY=              3.2156   ZZ=             25.8895
   XY=              2.3795   XZ=              0.0017   YZ=             -0.0025
 Octapole moment (field-independent basis, Debye-Ang**2):
  XXX=            -76.8778  YYY=            -34.2154  ZZZ=             -0.0004  XYY=             73.4688
  XXY=             27.7813  XXZ=             -0.0033  XZZ=              1.0427  YZZ=             -2.3694
  YYZ=             -0.0048  XYZ=              0.0052
 Hexadecapole moment (field-independent basis, Debye-Ang**3):
 XXXX=          -3759.9689 YYYY=          -1092.6200 ZZZZ=            -57.9792 XXXY=            -50.6998
 XXXZ=              0.0023 YYYX=             34.0899 YYYZ=             -0.0238 ZZZX=              0.0011
 ZZZY=              0.0005 XXYY=           -780.5747 XXZZ=           -442.7848 YYZZ=           -165.1656
 XXYZ=             -0.0152 YYXZ=              0.0168 ZZXY=              6.4195
 N-N= 7.063921340883D+02 E-N=-2.734629634812D+03  KE= 5.553601038571D+02
 Calling FoFJK, ICntrl=      2127 FMM=F ISym2X=0 I1Cent= 0 IOpClX= 0 NMat=1 NMatS=1 NMatT=0.
 ***** Axes restored to original set *****
 -------------------------------------------------------------------
 Center     Atomic                   Forces (Hartrees/Bohr)
 Number     Number              X              Y              Z
 -------------------------------------------------------------------
      1        7          -0.103331018   -0.004667399    0.000042432
      2        6           0.078563355    0.003184517   -0.000043912
      3        6          -0.023610393    0.008706375    0.000017068
      4        6          -0.004258532   -0.030187557    0.000020424
      5        6           0.031602331    0.035322793    0.000032622
      6        6          -0.021713045    0.011761568   -0.000070853
      7        6          -0.003122036    0.021781464    0.000044579
      8        6          -0.020614241   -0.022436566   -0.000029960
      9        6           0.037746646    0.006965048   -0.000002991
     10        6           0.022018669   -0.083494600   -0.000003611
     11        6          -0.025189430    0.010640202   -0.000005025
     12        6           0.031105983    0.011184311   -0.000007004
     13        7           0.058060291    0.089970859   -0.000002400
     14        6          -0.056977425   -0.065241290    0.000011856
     15        1          -0.001287757   -0.006521264   -0.000013216
     16        1          -0.004448528    0.003974538   -0.000008391
     17        1           0.007165809    0.004614285    0.000019565
     18        1          -0.016373410   -0.006273723    0.000005396
     19        1           0.014662732    0.010716437   -0.000006579
 -------------------------------------------------------------------
 Cartesian Forces:  Max     0.103331018 RMS     0.030562282

 GradGradGradGradGradGradGradGradGradGradGradGradGradGradGradGradGradGrad
 Berny optimization.
 FormGI is forming the generalized inverse of G from B-inverse, IUseBI=4.
 Internal  Forces:  Max     0.106972455 RMS     0.020861833
 Search for a local minimum.
 Step number   1 out of a maximum of  102
 All quantities printed in internal units (Hartrees-Bohrs-Radians)
 Mixed Optimization -- RFO/linear search
 Second derivative matrix not updated -- first step.
 ITU=  0
     Eigenvalues ---    0.01643   0.01643   0.01876   0.01888   0.01937
     Eigenvalues ---    0.01958   0.02001   0.02024   0.02034   0.02052
     Eigenvalues ---    0.02086   0.02127   0.02135   0.02139   0.02160
     Eigenvalues ---    0.02182   0.04856   0.04856   0.16000   0.16000
     Eigenvalues ---    0.16000   0.16000   0.16000   0.22414   0.23237
     Eigenvalues ---    0.23379   0.23658   0.24626   0.25000   0.25000
     Eigenvalues ---    0.25000   0.34767   0.34854   0.34879   0.35009
     Eigenvalues ---    0.35040   0.38424   0.40114   0.40367   0.40465
     Eigenvalues ---    0.40850   0.43002   0.43579   0.45004   0.45253
     Eigenvalues ---    0.45440   0.45960   0.46400   0.47115   1.27286
     Eigenvalues ---    1.27670
 RFO step:  Lambda=-6.06845329D-02 EMin= 1.64318259D-02
 Linear search not attempted -- first point.
 Maximum step size (   0.300) exceeded in Quadratic search.
    -- Step size scaled by   0.814
 Iteration  1 RMS(Cart)=  0.04386683 RMS(Int)=  0.00106008
 Iteration  2 RMS(Cart)=  0.00165803 RMS(Int)=  0.00018229
 Iteration  3 RMS(Cart)=  0.00000149 RMS(Int)=  0.00018229
 Iteration  4 RMS(Cart)=  0.00000000 RMS(Int)=  0.00018229
 Variable       Old X    -DE/DX   Delta X   Delta X   Delta X     New X
                                 (Linear)    (Quad)   (Total)
    R1        2.19244   0.10344   0.00000   0.06299   0.06299   2.25543
    R2        2.70927   0.02481   0.00000   0.04342   0.04342   2.75269
    R3        2.64325   0.01035   0.00000   0.01704   0.01710   2.66035
    R4        2.65814   0.03085   0.00000   0.05043   0.05050   2.70864
    R5        2.06055   0.00637   0.00000   0.01271   0.01271   2.07326
    R6        2.63185   0.04582   0.00000   0.07055   0.07055   2.70240
    R7        2.64023  -0.00446   0.00000  -0.00773  -0.00779   2.63244
    R8        2.05871   0.00573   0.00000   0.01140   0.01140   2.07011
    R9        2.67552   0.01872   0.00000   0.03016   0.03009   2.70561
   R10        2.05913   0.00719   0.00000   0.01432   0.01432   2.07344
   R11        2.68057   0.03555   0.00000   0.05928   0.05899   2.73956
   R12        2.68298   0.02227   0.00000   0.03689   0.03653   2.71951
   R13        2.65278   0.04269   0.00000   0.06843   0.06851   2.72129
   R14        2.63030   0.02072   0.00000   0.03222   0.03258   2.66288
   R15        2.05661   0.01292   0.00000   0.02561   0.02561   2.08221
   R16        2.62326   0.05197   0.00000   0.07888   0.07916   2.70242
   R17        2.64728   0.02740   0.00000   0.04295   0.04289   2.69018
   R18        2.05610   0.01474   0.00000   0.02921   0.02921   2.08531
   R19        2.71399   0.02181   0.00000   0.03847   0.03847   2.75245
   R20        2.19355   0.10697   0.00000   0.06533   0.06533   2.25888
    A1        2.11169   0.00276   0.00000   0.01024   0.01029   2.12197
    A2        2.07971   0.00057   0.00000   0.00206   0.00204   2.08175
    A3        2.09179  -0.00333   0.00000  -0.01230  -0.01232   2.07946
    A4        2.10249  -0.00061   0.00000  -0.00199  -0.00198   2.10051
    A5        2.09355   0.00126   0.00000   0.00291   0.00292   2.09646
    A6        2.08715  -0.00064   0.00000  -0.00092  -0.00094   2.08621
    A7        2.09561   0.00090   0.00000   0.00055   0.00039   2.09599
    A8        2.10532  -0.00215   0.00000  -0.00656  -0.00648   2.09884
    A9        2.08226   0.00125   0.00000   0.00601   0.00609   2.08835
   A10        2.12075   0.00151   0.00000   0.00076   0.00053   2.12128
   A11        2.05260   0.00395   0.00000   0.01699   0.01710   2.06971
   A12        2.10983  -0.00546   0.00000  -0.01774  -0.01763   2.09220
   A13        2.05785   0.00704   0.00000   0.01805   0.01828   2.07612
   A14        2.15836  -0.00155   0.00000  -0.00138  -0.00091   2.15745
   A15        2.06698  -0.00549   0.00000  -0.01667  -0.01737   2.04961
   A16        2.09334  -0.01156   0.00000  -0.02867  -0.02854   2.06480
   A17        2.10170   0.01309   0.00000   0.03500   0.03516   2.13686
   A18        2.08815  -0.00153   0.00000  -0.00632  -0.00662   2.08153
   A19        2.11227   0.02361   0.00000   0.06726   0.06764   2.17991
   A20        2.11068  -0.02400   0.00000  -0.07863  -0.07882   2.03186
   A21        2.06024   0.00039   0.00000   0.01137   0.01118   2.07142
   A22        2.09537  -0.04147   0.00000  -0.11105  -0.11008   1.98528
   A23        2.09696   0.03021   0.00000   0.08450   0.08466   2.18162
   A24        2.07578  -0.00421   0.00000  -0.00202  -0.00211   2.07368
   A25        2.11044  -0.02601   0.00000  -0.08248  -0.08256   2.02789
   A26        2.10665  -0.00533   0.00000  -0.01771  -0.01823   2.08842
   A27        2.11818  -0.00799   0.00000  -0.01908  -0.01882   2.09936
   A28        2.05835   0.01332   0.00000   0.03679   0.03705   2.09541
   A29        3.13524   0.00101   0.00000   0.01071   0.01071   3.14595
   A30        3.13435   0.01043   0.00000   0.07773   0.07773   3.21207
   A31        3.14161   0.00000   0.00000  -0.00003  -0.00003   3.14158
   A32        3.14142   0.00002   0.00000   0.00012   0.00012   3.14155
    D1       -3.14139  -0.00001   0.00000  -0.00006  -0.00006  -3.14145
    D2       -0.00027   0.00001   0.00000   0.00009   0.00009  -0.00018
    D3       -0.00003   0.00000   0.00000  -0.00002  -0.00002  -0.00005
    D4        3.14108   0.00001   0.00000   0.00013   0.00013   3.14122
    D5       -0.00009   0.00000   0.00000   0.00000   0.00000  -0.00009
    D6       -3.14157  -0.00001   0.00000  -0.00006  -0.00006   3.14156
    D7       -3.14144   0.00000   0.00000  -0.00004  -0.00004  -3.14148
    D8        0.00027  -0.00001   0.00000  -0.00010  -0.00010   0.00017
    D9        3.14122   0.00001   0.00000   0.00011   0.00011   3.14133
   D10       -0.00001   0.00000   0.00000   0.00004   0.00004   0.00003
   D11        0.00010   0.00000   0.00000  -0.00004  -0.00004   0.00006
   D12       -3.14112  -0.00001   0.00000  -0.00012  -0.00012  -3.14124
   D13        0.00044  -0.00001   0.00000  -0.00010  -0.00010   0.00033
   D14        3.14125   0.00001   0.00000   0.00009   0.00009   3.14134
   D15       -3.14152   0.00000   0.00000  -0.00003  -0.00003  -3.14155
   D16       -0.00070   0.00001   0.00000   0.00016   0.00016  -0.00054
   D17       -0.00078   0.00002   0.00000   0.00018   0.00018  -0.00060
   D18        3.14127   0.00001   0.00000   0.00009   0.00009   3.14136
   D19       -3.14157  -0.00001   0.00000  -0.00003  -0.00003   3.14159
   D20        0.00048  -0.00001   0.00000  -0.00012  -0.00012   0.00036
   D21        0.00060  -0.00001   0.00000  -0.00013  -0.00013   0.00046
   D22       -3.14111  -0.00001   0.00000  -0.00008  -0.00008  -3.14118
   D23       -3.14143   0.00000   0.00000  -0.00005  -0.00004  -3.14147
   D24        0.00005   0.00000   0.00000   0.00001   0.00001   0.00006
   D25        3.14095   0.00002   0.00000   0.00015   0.00014   3.14110
   D26       -0.00045   0.00001   0.00000   0.00007   0.00007  -0.00038
   D27       -0.00018   0.00000   0.00000   0.00005   0.00004  -0.00013
   D28       -3.14158   0.00000   0.00000  -0.00003  -0.00003   3.14157
   D29       -3.14153   0.00000   0.00000   0.00001   0.00001  -3.14151
   D30       -0.00006   0.00000   0.00000   0.00003   0.00003  -0.00003
   D31        0.00018   0.00000   0.00000  -0.00004  -0.00004   0.00014
   D32       -3.14154   0.00000   0.00000  -0.00003  -0.00003  -3.14157
   D33       -0.00029   0.00001   0.00000   0.00004   0.00004  -0.00024
   D34        3.14143   0.00001   0.00000   0.00003   0.00003   3.14146
   D35        0.00016   0.00000   0.00000   0.00001   0.00001   0.00017
   D36       -3.14139   0.00000   0.00000   0.00000   0.00000  -3.14139
   D37        0.00007  -0.00001   0.00000  -0.00006  -0.00006   0.00001
   D38        3.14149   0.00000   0.00000   0.00001   0.00001   3.14149
   D39       -3.14156   0.00000   0.00000  -0.00004  -0.00004   3.14158
   D40       -0.00015   0.00000   0.00000   0.00002   0.00002  -0.00013
         Item               Value     Threshold  Converged?
 Maximum Force            0.106972     0.000450     NO 
 RMS     Force            0.020862     0.000300     NO 
 Maximum Displacement     0.194975     0.001800     NO 
 RMS     Displacement     0.043620     0.001200     NO 
 Predicted change in Energy=-3.202477D-02
 GradGradGradGradGradGradGradGradGradGradGradGradGradGradGradGradGradGrad

                          Input orientation:                          
 ---------------------------------------------------------------------
 Center     Atomic      Atomic             Coordinates (Angstroms)
 Number     Number       Type             X           Y           Z
 ---------------------------------------------------------------------
      1          7           0        1.071444   -0.109537    0.008714
      2          6           0        2.263433   -0.049106    0.008265
      3          6           0        4.485335   -1.162332    0.007337
      4          6           0        3.718533    0.018306    0.007735
      5          6           0        4.378103    1.287166    0.008014
      6          6           0        5.769668    1.350978    0.007822
      7          6           0        6.573719    0.166328    0.006939
      8          6           0        5.918243   -1.126738    0.006988
      9          6           0        6.720503   -2.322609    0.006616
     10          6           0        8.129407   -2.348276    0.006355
     11          6           0        8.729066   -1.050016    0.006171
     12          6           0        8.012754    0.180217    0.006433
     13          7           0        9.399553    2.438675    0.006259
     14          6           0        8.735108    1.445011    0.006331
     15          1           0        3.974983   -2.133523    0.007483
     16          1           0        3.793079    2.213324    0.008659
     17          1           0        6.249966    2.337488    0.007804
     18          1           0        6.174124   -3.279461    0.006645
     19          1           0        9.829849   -0.972634    0.005768
 ---------------------------------------------------------------------
                    Distance matrix (angstroms):
                    1          2          3          4          5
     1  N    0.000000
     2  C    1.193520   0.000000
     3  C    3.572538   2.485180   0.000000
     4  C    2.650175   1.456661   1.407797   0.000000
     5  C    3.589537   2.501490   2.451844   1.430048   0.000000
     6  C    4.920002   3.775437   2.822453   2.446052   1.393028
     7  C    5.509187   4.315667   2.475215   2.859021   2.465159
     8  C    4.952390   3.810371   1.433350   2.479889   2.863383
     9  C    6.067089   5.003428   2.518377   3.806798   4.303175
    10  C    7.404513   6.300464   3.832196   5.005650   5.223861
    11  C    7.715160   6.542648   4.245218   5.123159   4.938958
    12  C    6.947356   5.753894   3.774272   4.297273   3.799477
    13  N    8.709236   7.557332   6.092355   6.175125   5.151789
    14  C    7.819743   6.641910   4.985861   5.215507   4.359863
    15  H    3.539359   2.697072   1.097120   2.167057   3.444360
    16  H    3.578125   2.731009   3.445907   2.196283   1.095456
    17  H    5.727568   4.646319   3.919523   3.433185   2.146404
    18  H    6.007143   5.072347   2.708181   4.111593   4.907115
    19  H    8.800830   7.622570   5.347880   6.191135   5.901545
                    6          7          8          9         10
     6  C    0.000000
     7  C    1.431745   0.000000
     8  C    2.482166   1.449713   0.000000
     9  C    3.794644   2.493261   1.440045   0.000000
    10  C    4.387807   2.956924   2.526144   1.409138   0.000000
    11  C    3.810881   2.474877   2.811870   2.377776   1.430059
    12  C    2.530240   1.439102   2.468828   2.816745   2.531183
    13  N    3.789347   3.626141   4.983141   5.463253   4.952593
    14  C    2.966930   2.511301   3.814266   4.272423   3.841341
    15  H    3.919521   3.470266   2.188579   2.752024   4.159971
    16  H    2.156513   3.452848   3.958831   5.398565   6.293802
    17  H    1.097218   2.195165   3.480072   4.683792   5.048632
    18  H    4.648070   3.468882   2.167878   1.101860   2.165696
    19  H    4.678060   3.449582   3.914641   3.389759   2.187211
                   11         12         13         14         15
    11  C    0.000000
    12  C    1.423579   0.000000
    13  N    3.552537   2.650253   0.000000
    14  C    2.495035   1.456536   1.195347   0.000000
    15  H    4.875992   4.653708   7.094431   5.955225   0.000000
    16  H    5.917210   4.683929   5.611002   5.001396   4.350652
    17  H    4.197752   2.785900   3.151212   2.640539   5.016521
    18  H    3.390893   3.917900   6.565095   5.373945   2.479798
    19  H    1.103499   2.151953   3.438341   2.653953   5.968846
                   16         17         18         19
    16  H    0.000000
    17  H    2.460023   0.000000
    18  H    5.986658   5.617461   0.000000
    19  H    6.825902   4.875702   4.322705   0.000000
 Stoichiometry    C12H5N2(1-)
 Framework group  C1[X(C12H5N2)]
 Deg. of freedom    51
 Full point group                 C1      NOp   1
 Largest Abelian subgroup         C1      NOp   1
 Largest concise Abelian subgroup C1      NOp   1
                         Standard orientation:                         
 ---------------------------------------------------------------------
 Center     Atomic      Atomic             Coordinates (Angstroms)
 Number     Number       Type             X           Y           Z
 ---------------------------------------------------------------------
      1          7           0        4.897663   -0.282751   -0.000026
      2          6           0        3.704248   -0.266973   -0.000097
      3          6           0        1.557934    0.985808   -0.000147
      4          6           0        2.247811   -0.241369   -0.000167
      5          6           0        1.508594   -1.465540    0.000146
      6          6           0        0.115794   -1.440397    0.000395
      7          6           0       -0.611001   -0.206840   -0.000059
      8          6           0        0.125676    1.041750   -0.000038
      9          6           0       -0.598615    2.286391    0.000020
     10          6           0       -2.003008    2.401937    0.000219
     11          6           0       -2.684313    1.144601    0.000044
     12          6           0       -2.047988   -0.128847   -0.000101
     13          7           0       -3.576117   -2.294179   -0.000148
     14          6           0       -2.849601   -1.344953   -0.000149
     15          1           0        2.129237    1.922442   -0.000028
     16          1           0        2.033309   -2.427152    0.000470
     17          1           0       -0.426494   -2.394238    0.000392
     18          1           0        0.007726    3.206416    0.000009
     19          1           0       -3.787790    1.137640   -0.000014
 ---------------------------------------------------------------------
 Rotational constants (GHZ):      1.4484691      0.4546352      0.3460268
 Standard basis: STO-3G (5D, 7F)
 There are    75 symmetry adapted cartesian basis functions of A   symmetry.
 There are    75 symmetry adapted basis functions of A   symmetry.
    75 basis functions,   225 primitive gaussians,    75 cartesian basis functions
    46 alpha electrons       46 beta electrons
       nuclear repulsion energy       694.7459557850 Hartrees.
 NAtoms=   19 NActive=   19 NUniq=   19 SFac= 1.00D+00 NAtFMM=   60 NAOKFM=F Big=F
 Integral buffers will be    131072 words long.
 Raffenetti 2 integral format.
 Two-electron integral symmetry is turned on.
 One-electron integrals computed using PRISM.
 NBasis=    75 RedAO= T EigKep=  1.72D-01  NBF=    75
 NBsUse=    75 1.00D-06 EigRej= -1.00D+00 NBFU=    75
 Initial guess from the checkpoint file:  "/tmp/bnp.472641.sequoia/Gau-15813.chk"
 B after Tr=     0.000000    0.000000    0.000000
         Rot=    1.000000    0.000001    0.000000   -0.000568 Ang=   0.07 deg.
 ExpMin= 1.69D-01 ExpMax= 9.91D+01 ExpMxC= 9.91D+01 IAcc=1 IRadAn=         1 AccDes= 0.00D+00
 Harris functional with IExCor=  402 and IRadAn=       1 diagonalized for initial guess.
 HarFok:  IExCor=  402 AccDes= 0.00D+00 IRadAn=         1 IDoV= 1 UseB2=F ITyADJ=14
 ICtDFT=  3500011 ScaDFX=  1.000000  1.000000  1.000000  1.000000
 FoFCou: FMM=F IPFlag=           0 FMFlag=      100000 FMFlg1=           0
         NFxFlg=           0 DoJE=T BraDBF=F KetDBF=T FulRan=T
         wScrn=  0.000000 ICntrl=     500 IOpCl=  0 I1Cent=   200000004 NGrid=           0
         NMat0=    1 NMatS0=      1 NMatT0=    0 NMatD0=    1 NMtDS0=    0 NMtDT0=    0
 Petite list used in FoFCou.
 Keep R1 ints in memory in canonical form, NReq=4993994.
 Requested convergence on RMS density matrix=1.00D-08 within 128 cycles.
 Requested convergence on MAX density matrix=1.00D-06.
 Requested convergence on             energy=1.00D-06.
 No special actions if energy rises.
 Integral accuracy reduced to 1.0D-05 until final iterations.
 Initial convergence to 1.0D-05 achieved.  Increase integral accuracy.
 SCF Done:  E(RB3LYP) =  -562.510306499     A.U. after   22 cycles
            NFock= 22  Conv=0.15D-08     -V/T= 2.0139
 Calling FoFJK, ICntrl=      2127 FMM=F ISym2X=0 I1Cent= 0 IOpClX= 0 NMat=1 NMatS=1 NMatT=0.
 ***** Axes restored to original set *****
 -------------------------------------------------------------------
 Center     Atomic                   Forces (Hartrees/Bohr)
 Number     Number              X              Y              Z
 -------------------------------------------------------------------
      1        7          -0.014777095   -0.000694985    0.000004107
      2        6           0.010565398    0.000588714   -0.000005327
      3        6          -0.004855939    0.007114541    0.000008665
      4        6           0.001162894   -0.010681149    0.000021053
      5        6           0.011906030    0.009618073    0.000019851
      6        6          -0.010985056    0.002140785   -0.000058401
      7        6          -0.003295327    0.003480260    0.000034005
      8        6          -0.006407152   -0.008491767   -0.000039243
      9        6           0.008410681    0.011291826    0.000001407
     10        6           0.010909195   -0.032795164    0.000003696
     11        6          -0.013061121    0.014292515   -0.000007706
     12        6           0.013528959   -0.001516340    0.000017029
     13        7           0.008334109    0.012264773   -0.000005650
     14        6          -0.008466764   -0.008448577    0.000013330
     15        1          -0.000054964   -0.001891801   -0.000012989
     16        1          -0.002426423   -0.000115765   -0.000008530
     17        1           0.003097262   -0.000098476    0.000014537
     18        1          -0.006254199    0.000125259    0.000013935
     19        1           0.002669513    0.003817277   -0.000013770
 -------------------------------------------------------------------
 Cartesian Forces:  Max     0.032795164 RMS     0.007736848

 GradGradGradGradGradGradGradGradGradGradGradGradGradGradGradGradGradGrad
 Berny optimization.
 Using GEDIIS/GDIIS optimizer.
 FormGI is forming the generalized inverse of G from B-inverse, IUseBI=4.
 Internal  Forces:  Max     0.018903323 RMS     0.004667989
 Search for a local minimum.
 Step number   2 out of a maximum of  102
 All quantities printed in internal units (Hartrees-Bohrs-Radians)
 Mixed Optimization -- RFO/linear search
 Update second derivatives using D2CorX and points    1    2
 DE= -3.01D-02 DEPred=-3.20D-02 R= 9.41D-01
 TightC=F SS=  1.41D+00  RLast= 3.00D-01 DXNew= 5.0454D-01 8.9996D-01
 Trust test= 9.41D-01 RLast= 3.00D-01 DXMaxT set to 5.05D-01
 ITU=  1  0
 Use linear search instead of GDIIS.
     Eigenvalues ---    0.01643   0.01644   0.01876   0.01888   0.01940
     Eigenvalues ---    0.01961   0.02003   0.02029   0.02035   0.02053
     Eigenvalues ---    0.02091   0.02131   0.02135   0.02139   0.02160
     Eigenvalues ---    0.02175   0.04856   0.04970   0.15797   0.16000
     Eigenvalues ---    0.16000   0.16000   0.16063   0.22070   0.22407
     Eigenvalues ---    0.23418   0.23631   0.24591   0.24971   0.25000
     Eigenvalues ---    0.25102   0.34766   0.34862   0.34885   0.35013
     Eigenvalues ---    0.35093   0.38728   0.40201   0.40442   0.40600
     Eigenvalues ---    0.41067   0.43023   0.43416   0.44633   0.45058
     Eigenvalues ---    0.45387   0.46279   0.46880   0.49600   1.27484
     Eigenvalues ---    1.33080
 RFO step:  Lambda=-2.91226794D-03 EMin= 1.64318259D-02
 Quartic linear search produced a step of  0.35327.
 Iteration  1 RMS(Cart)=  0.02080227 RMS(Int)=  0.00063430
 Iteration  2 RMS(Cart)=  0.00094739 RMS(Int)=  0.00020360
 Iteration  3 RMS(Cart)=  0.00000021 RMS(Int)=  0.00020360
 Variable       Old X    -DE/DX   Delta X   Delta X   Delta X     New X
                                 (Linear)    (Quad)   (Total)
    R1        2.25543   0.01479   0.02225  -0.00941   0.01284   2.26827
    R2        2.75269   0.00421   0.01534  -0.00398   0.01136   2.76405
    R3        2.66035  -0.00239   0.00604  -0.01377  -0.00767   2.65268
    R4        2.70864   0.00358   0.01784  -0.01006   0.00780   2.71644
    R5        2.07326   0.00170   0.00449   0.00125   0.00574   2.07900
    R6        2.70240   0.00974   0.02492  -0.00066   0.02430   2.72670
    R7        2.63244  -0.00521  -0.00275  -0.01191  -0.01468   2.61777
    R8        2.07011   0.00120   0.00403  -0.00015   0.00388   2.07399
    R9        2.70561   0.00383   0.01063  -0.00073   0.00985   2.71546
   R10        2.07344   0.00127   0.00506  -0.00110   0.00396   2.07740
   R11        2.73956   0.00397   0.02084  -0.01297   0.00750   2.74706
   R12        2.71951   0.00543   0.01290   0.00146   0.01396   2.73347
   R13        2.72129   0.00544   0.02420  -0.01201   0.01228   2.73357
   R14        2.66288   0.00866   0.01151   0.01199   0.02389   2.68677
   R15        2.08221   0.00299   0.00905   0.00078   0.00983   2.09204
   R16        2.70242   0.01890   0.02797   0.02158   0.04985   2.75227
   R17        2.69018  -0.00068   0.01515  -0.01951  -0.00440   2.68577
   R18        2.08531   0.00293   0.01032  -0.00097   0.00935   2.09466
   R19        2.75245   0.00325   0.01359  -0.00505   0.00854   2.76099
   R20        2.25888   0.01483   0.02308  -0.01026   0.01282   2.27170
    A1        2.12197   0.00120   0.00363   0.00226   0.00585   2.12782
    A2        2.08175   0.00026   0.00072   0.00279   0.00353   2.08529
    A3        2.07946  -0.00146  -0.00435  -0.00505  -0.00938   2.07008
    A4        2.10051  -0.00013  -0.00070  -0.00004  -0.00073   2.09978
    A5        2.09646  -0.00051   0.00103  -0.00415  -0.00311   2.09335
    A6        2.08621   0.00064  -0.00033   0.00419   0.00385   2.09006
    A7        2.09599  -0.00109   0.00014  -0.00665  -0.00659   2.08940
    A8        2.09884  -0.00164  -0.00229  -0.01200  -0.01425   2.08459
    A9        2.08835   0.00273   0.00215   0.01865   0.02084   2.10920
   A10        2.12128   0.00032   0.00019   0.00055   0.00056   2.12184
   A11        2.06971   0.00277   0.00604   0.01627   0.02240   2.09210
   A12        2.09220  -0.00309  -0.00623  -0.01682  -0.02296   2.06924
   A13        2.07612   0.00197   0.00646   0.00329   0.01000   2.08612
   A14        2.15745   0.00036  -0.00032   0.00577   0.00600   2.16345
   A15        2.04961  -0.00233  -0.00614  -0.00906  -0.01599   2.03362
   A16        2.06480  -0.00304  -0.01008  -0.00364  -0.01366   2.05113
   A17        2.13686   0.00317   0.01242   0.00483   0.01750   2.15436
   A18        2.08153  -0.00013  -0.00234  -0.00119  -0.00384   2.07769
   A19        2.17991   0.01057   0.02389   0.03273   0.05702   2.23693
   A20        2.03186  -0.01100  -0.02784  -0.04364  -0.07169   1.96017
   A21        2.07142   0.00044   0.00395   0.01091   0.01466   2.08608
   A22        1.98528  -0.01833  -0.03889  -0.05131  -0.08908   1.89620
   A23        2.18162   0.01087   0.02991   0.02794   0.05803   2.23965
   A24        2.07368  -0.00166  -0.00074  -0.00070  -0.00154   2.07214
   A25        2.02789  -0.00921  -0.02916  -0.02724  -0.05649   1.97139
   A26        2.08842  -0.00065  -0.00644   0.00089  -0.00614   2.08227
   A27        2.09936  -0.00231  -0.00665  -0.00257  -0.00893   2.09044
   A28        2.09541   0.00296   0.01309   0.00168   0.01507   2.11047
   A29        3.14595  -0.00013   0.00378  -0.01826  -0.01448   3.13147
   A30        3.21207   0.00025   0.02746  -0.03817  -0.01071   3.20136
   A31        3.14158   0.00000  -0.00001   0.00021   0.00020   3.14178
   A32        3.14155   0.00001   0.00004   0.00018   0.00023   3.14177
    D1       -3.14145   0.00000  -0.00002  -0.00007  -0.00009  -3.14154
    D2       -0.00018   0.00001   0.00003   0.00036   0.00039   0.00022
    D3       -0.00005   0.00000  -0.00001   0.00003   0.00002  -0.00003
    D4        3.14122   0.00001   0.00005   0.00046   0.00051  -3.14146
    D5       -0.00009   0.00000   0.00000   0.00000   0.00000  -0.00009
    D6        3.14156  -0.00001  -0.00002  -0.00046  -0.00048   3.14108
    D7       -3.14148   0.00000  -0.00002  -0.00010  -0.00012   3.14158
    D8        0.00017  -0.00001  -0.00004  -0.00057  -0.00060  -0.00043
    D9        3.14133   0.00001   0.00004   0.00025   0.00029  -3.14156
   D10        0.00003   0.00000   0.00001   0.00005   0.00007   0.00010
   D11        0.00006   0.00000  -0.00001  -0.00018  -0.00020  -0.00014
   D12       -3.14124  -0.00001  -0.00004  -0.00039  -0.00042   3.14153
   D13        0.00033  -0.00001  -0.00004  -0.00036  -0.00040  -0.00007
   D14        3.14134   0.00001   0.00003   0.00037   0.00041  -3.14143
   D15       -3.14155   0.00000  -0.00001  -0.00017  -0.00018   3.14145
   D16       -0.00054   0.00001   0.00006   0.00057   0.00063   0.00009
   D17       -0.00060   0.00001   0.00006   0.00072   0.00079   0.00019
   D18        3.14136   0.00001   0.00003   0.00039   0.00042  -3.14141
   D19        3.14159   0.00000  -0.00001  -0.00003  -0.00003   3.14156
   D20        0.00036  -0.00001  -0.00004  -0.00037  -0.00040  -0.00004
   D21        0.00046  -0.00001  -0.00005  -0.00053  -0.00058  -0.00011
   D22       -3.14118   0.00000  -0.00003  -0.00008  -0.00012  -3.14130
   D23       -3.14147   0.00000  -0.00002  -0.00021  -0.00023   3.14148
   D24        0.00006   0.00000   0.00000   0.00023   0.00023   0.00029
   D25        3.14110   0.00001   0.00005   0.00070   0.00074  -3.14135
   D26       -0.00038   0.00000   0.00003   0.00018   0.00020  -0.00018
   D27       -0.00013   0.00001   0.00002   0.00037   0.00037   0.00024
   D28        3.14157   0.00000  -0.00001  -0.00015  -0.00016   3.14141
   D29       -3.14151   0.00000   0.00000  -0.00009  -0.00010   3.14158
   D30       -0.00003   0.00000   0.00001  -0.00022  -0.00021  -0.00024
   D31        0.00014  -0.00001  -0.00002  -0.00056  -0.00058  -0.00044
   D32       -3.14157  -0.00001  -0.00001  -0.00069  -0.00069   3.14093
   D33       -0.00024   0.00000   0.00001   0.00024   0.00026   0.00001
   D34        3.14146   0.00001   0.00001   0.00037   0.00038  -3.14134
   D35        0.00017   0.00001   0.00000   0.00043   0.00044   0.00061
   D36       -3.14139   0.00001   0.00000   0.00040   0.00039  -3.14100
   D37        0.00001  -0.00001  -0.00002  -0.00074  -0.00077  -0.00076
   D38        3.14149   0.00000   0.00000  -0.00023  -0.00024   3.14126
   D39        3.14158  -0.00001  -0.00002  -0.00072  -0.00073   3.14084
   D40       -0.00013   0.00000   0.00001  -0.00020  -0.00020  -0.00032
         Item               Value     Threshold  Converged?
 Maximum Force            0.018903     0.000450     NO 
 RMS     Force            0.004668     0.000300     NO 
 Maximum Displacement     0.120730     0.001800     NO 
 RMS     Displacement     0.020787     0.001200     NO 
 Predicted change in Energy=-3.140508D-03
 GradGradGradGradGradGradGradGradGradGradGradGradGradGradGradGradGradGrad

                          Input orientation:                          
 ---------------------------------------------------------------------
 Center     Atomic      Atomic             Coordinates (Angstroms)
 Number     Number       Type             X           Y           Z
 ---------------------------------------------------------------------
      1          7           0        1.060837   -0.101576    0.008646
      2          6           0        2.260283   -0.055858    0.008435
      3          6           0        4.487243   -1.161685    0.007257
      4          6           0        3.721253    0.014639    0.007961
      5          6           0        4.380299    1.298245    0.008010
      6          6           0        5.764204    1.359546    0.007525
      7          6           0        6.570000    0.169782    0.007053
      8          6           0        5.924427   -1.132687    0.006837
      9          6           0        6.745664   -2.323508    0.006727
     10          6           0        8.164676   -2.412164    0.006305
     11          6           0        8.715434   -1.063876    0.006001
     12          6           0        8.016485    0.173630    0.006763
     13          7           0        9.394147    2.451422    0.006465
     14          6           0        8.738623    1.443746    0.006721
     15          1           0        3.980084   -2.137972    0.007094
     16          1           0        3.776394    2.214662    0.008499
     17          1           0        6.268957    2.336129    0.007718
     18          1           0        6.141118   -3.250927    0.007246
     19          1           0        9.816742   -0.938289    0.005077
 ---------------------------------------------------------------------
                    Distance matrix (angstroms):
                    1          2          3          4          5
     1  N    0.000000
     2  C    1.200316   0.000000
     3  C    3.586654   2.486404   0.000000
     4  C    2.662953   1.462670   1.403737   0.000000
     5  C    3.602545   2.515565   2.462253   1.442909   0.000000
     6  C    4.925093   3.778999   2.826169   2.445899   1.385262
     7  C    5.515842   4.315621   2.471979   2.852969   2.463376
     8  C    4.971690   3.819099   1.437477   2.484016   2.879890
     9  C    6.103625   5.026021   2.539744   3.822826   4.325742
    10  C    7.470164   6.357204   3.884226   5.062942   5.299872
    11  C    7.714847   6.533382   4.229322   5.109309   4.936903
    12  C    6.961090   5.760775   3.773409   4.298174   3.806128
    13  N    8.715610   7.561645   6.093623   6.174110   5.144753
    14  C    7.831757   6.649640   4.986232   5.216930   4.360752
    15  H    3.559341   2.700540   1.100158   2.168116   3.459445
    16  H    3.569202   2.730174   3.450366   2.200714   1.097507
    17  H    5.750385   4.668091   3.925456   3.446754   2.155048
    18  H    5.977262   5.026863   2.664627   4.064439   4.878058
    19  H    8.795792   7.607810   5.334179   6.169527   5.878520
                    6          7          8          9         10
     6  C    0.000000
     7  C    1.436957   0.000000
     8  C    2.497378   1.453682   0.000000
     9  C    3.811581   2.499470   1.446542   0.000000
    10  C    4.470801   3.034705   2.579879   1.421779   0.000000
    11  C    3.818734   2.474833   2.791855   2.338090   1.456439
    12  C    2.545421   1.446490   2.466408   2.801906   2.590036
    13  N    3.790604   3.630659   4.988466   5.460258   5.016579
    14  C    2.975611   2.515137   3.815457   4.261935   3.898392
    15  H    3.926285   3.468918   2.188851   2.771797   4.193566
    16  H    2.163935   3.462048   3.977285   5.423242   6.376875
    17  H    1.099314   2.187164   3.485884   4.683958   5.112733
    18  H    4.625854   3.447490   2.129295   1.107061   2.190505
    19  H    4.658660   3.430620   3.897166   3.369028   2.213962
                   11         12         13         14         15
    11  C    0.000000
    12  C    1.421249   0.000000
    13  N    3.580220   2.662009   0.000000
    14  C    2.507730   1.461055   1.202132   0.000000
    15  H    4.855638   4.651455   7.097508   5.955872   0.000000
    16  H    5.928147   4.705761   5.622740   5.021756   4.357397
    17  H    4.188709   2.780334   3.127316   2.625947   5.025587
    18  H    3.377913   3.904432   6.564982   5.365351   2.430790
    19  H    1.108446   2.115961   3.415952   2.614657   5.958676
                   16         17         18         19
    16  H    0.000000
    17  H    2.495522   0.000000
    18  H    5.955215   5.588519   0.000000
    19  H    6.813730   4.827897   4.342639   0.000000
 Stoichiometry    C12H5N2(1-)
 Framework group  C1[X(C12H5N2)]
 Deg. of freedom    51
 Full point group                 C1      NOp   1
 Largest Abelian subgroup         C1      NOp   1
 Largest concise Abelian subgroup C1      NOp   1
                         Standard orientation:                         
 ---------------------------------------------------------------------
 Center     Atomic      Atomic             Coordinates (Angstroms)
 Number     Number       Type             X           Y           Z
 ---------------------------------------------------------------------
      1          7           0        4.910684   -0.273945   -0.000072
      2          6           0        3.710648   -0.248025    0.000081
      3          6           0        1.553625    0.988687   -0.000219
      4          6           0        2.248074   -0.231239    0.000047
      5          6           0        1.513624   -1.473241    0.000082
      6          6           0        0.128527   -1.451872    0.000016
      7          6           0       -0.604855   -0.216155   -0.000004
      8          6           0        0.117271    1.045481   -0.000199
      9          6           0       -0.631462    2.283173    0.000147
     10          6           0       -2.042657    2.456327    0.000181
     11          6           0       -2.672870    1.143297   -0.000182
     12          6           0       -2.048993   -0.133702    0.000153
     13          7           0       -3.560089   -2.325249   -0.000105
     14          6           0       -2.845618   -1.358475    0.000119
     15          1           0        2.118124    1.932979   -0.000374
     16          1           0        2.061783   -2.424053    0.000229
     17          1           0       -0.433588   -2.396604    0.000199
     18          1           0        0.027336    3.172875    0.000637
     19          1           0       -3.779709    1.083636   -0.000786
 ---------------------------------------------------------------------
 Rotational constants (GHZ):      1.4249359      0.4537456      0.3441554
 Standard basis: STO-3G (5D, 7F)
 There are    75 symmetry adapted cartesian basis functions of A   symmetry.
 There are    75 symmetry adapted basis functions of A   symmetry.
    75 basis functions,   225 primitive gaussians,    75 cartesian basis functions
    46 alpha electrons       46 beta electrons
       nuclear repulsion energy       692.5037668429 Hartrees.
 NAtoms=   19 NActive=   19 NUniq=   19 SFac= 1.00D+00 NAtFMM=   60 NAOKFM=F Big=F
 Integral buffers will be    131072 words long.
 Raffenetti 2 integral format.
 Two-electron integral symmetry is turned on.
 One-electron integrals computed using PRISM.
 NBasis=    75 RedAO= T EigKep=  1.76D-01  NBF=    75
 NBsUse=    75 1.00D-06 EigRej= -1.00D+00 NBFU=    75
 Initial guess from the checkpoint file:  "/tmp/bnp.472641.sequoia/Gau-15813.chk"
 B after Tr=     0.000000    0.000000    0.000000
         Rot=    0.999998    0.000000    0.000000   -0.002006 Ang=   0.23 deg.
 ExpMin= 1.69D-01 ExpMax= 9.91D+01 ExpMxC= 9.91D+01 IAcc=1 IRadAn=         1 AccDes= 0.00D+00
 Harris functional with IExCor=  402 and IRadAn=       1 diagonalized for initial guess.
 HarFok:  IExCor=  402 AccDes= 0.00D+00 IRadAn=         1 IDoV= 1 UseB2=F ITyADJ=14
 ICtDFT=  3500011 ScaDFX=  1.000000  1.000000  1.000000  1.000000
 FoFCou: FMM=F IPFlag=           0 FMFlag=      100000 FMFlg1=           0
         NFxFlg=           0 DoJE=T BraDBF=F KetDBF=T FulRan=T
         wScrn=  0.000000 ICntrl=     500 IOpCl=  0 I1Cent=   200000004 NGrid=           0
         NMat0=    1 NMatS0=      1 NMatT0=    0 NMatD0=    1 NMtDS0=    0 NMtDT0=    0
 Petite list used in FoFCou.
 Keep R1 ints in memory in canonical form, NReq=4993994.
 Requested convergence on RMS density matrix=1.00D-08 within 128 cycles.
 Requested convergence on MAX density matrix=1.00D-06.
 Requested convergence on             energy=1.00D-06.
 No special actions if energy rises.
 Integral accuracy reduced to 1.0D-05 until final iterations.
 Initial convergence to 1.0D-05 achieved.  Increase integral accuracy.
 SCF Done:  E(RB3LYP) =  -562.513695005     A.U. after   17 cycles
            NFock= 17  Conv=0.23D-08     -V/T= 2.0140
 Calling FoFJK, ICntrl=      2127 FMM=F ISym2X=0 I1Cent= 0 IOpClX= 0 NMat=1 NMatS=1 NMatT=0.
 ***** Axes restored to original set *****
 -------------------------------------------------------------------
 Center     Atomic                   Forces (Hartrees/Bohr)
 Number     Number              X              Y              Z
 -------------------------------------------------------------------
      1        7           0.001264053   -0.000384917    0.000002396
      2        6          -0.000759589    0.001271781    0.000001702
      3        6          -0.000304527   -0.000730915   -0.000007792
      4        6          -0.000141005   -0.002131554   -0.000004198
      5        6          -0.000256012    0.001445644   -0.000000310
      6        6           0.000476078    0.000402095    0.000018147
      7        6          -0.001542291    0.000652684   -0.000002719
      8        6           0.002225507    0.001404078   -0.000032185
      9        6          -0.004583357   -0.000266709    0.000001503
     10        6          -0.000768533   -0.005062044    0.000028805
     11        6           0.002880312    0.009345098   -0.000026401
     12        6           0.000491019   -0.002410476    0.000023320
     13        7          -0.001280093   -0.001459535   -0.000000969
     14        6           0.001117918    0.000687713    0.000016238
     15        1           0.000137084    0.000339417   -0.000003393
     16        1          -0.000159458   -0.000602560   -0.000001934
     17        1           0.000089784   -0.000285993   -0.000006825
     18        1           0.000834714   -0.000856414    0.000019048
     19        1           0.000278395   -0.001357389   -0.000024430
 -------------------------------------------------------------------
 Cartesian Forces:  Max     0.009345098 RMS     0.001776228

 GradGradGradGradGradGradGradGradGradGradGradGradGradGradGradGradGradGrad
 Berny optimization.
 Using GEDIIS/GDIIS optimizer.
 FormGI is forming the generalized inverse of G from B-inverse, IUseBI=4.
 Internal  Forces:  Max     0.005866319 RMS     0.000881270
 Search for a local minimum.
 Step number   3 out of a maximum of  102
 All quantities printed in internal units (Hartrees-Bohrs-Radians)
 Mixed Optimization -- En-DIIS/RFO-DIIS
 Update second derivatives using D2CorX and points    1    2    3
 DE= -3.39D-03 DEPred=-3.14D-03 R= 1.08D+00
 TightC=F SS=  1.41D+00  RLast= 1.78D-01 DXNew= 8.4853D-01 5.3520D-01
 Trust test= 1.08D+00 RLast= 1.78D-01 DXMaxT set to 5.35D-01
 ITU=  1  1  0
 Use linear search instead of GDIIS.
     Eigenvalues ---    0.01643   0.01649   0.01876   0.01889   0.01940
     Eigenvalues ---    0.01963   0.02007   0.02032   0.02036   0.02053
     Eigenvalues ---    0.02095   0.02132   0.02136   0.02139   0.02159
     Eigenvalues ---    0.02170   0.04856   0.04977   0.15633   0.16000
     Eigenvalues ---    0.16000   0.16003   0.16427   0.21603   0.22416
     Eigenvalues ---    0.23387   0.23686   0.24553   0.24965   0.25012
     Eigenvalues ---    0.25276   0.34768   0.34860   0.34899   0.34923
     Eigenvalues ---    0.35037   0.38659   0.40198   0.40282   0.40433
     Eigenvalues ---    0.41128   0.41245   0.43022   0.43798   0.45051
     Eigenvalues ---    0.45429   0.46348   0.46788   0.49597   1.27484
     Eigenvalues ---    1.35092
 RFO step:  Lambda=-2.44947166D-04 EMin= 1.64318245D-02
 Quartic linear search produced a step of -0.02036.
 Iteration  1 RMS(Cart)=  0.01156344 RMS(Int)=  0.00032783
 Iteration  2 RMS(Cart)=  0.00032590 RMS(Int)=  0.00000330
 Iteration  3 RMS(Cart)=  0.00000004 RMS(Int)=  0.00000330
 Variable       Old X    -DE/DX   Delta X   Delta X   Delta X     New X
                                 (Linear)    (Quad)   (Total)
    R1        2.26827  -0.00125  -0.00026   0.00013  -0.00014   2.26813
    R2        2.76405  -0.00055  -0.00023  -0.00044  -0.00067   2.76337
    R3        2.65268  -0.00053   0.00016  -0.00123  -0.00107   2.65160
    R4        2.71644  -0.00016  -0.00016   0.00036   0.00020   2.71664
    R5        2.07900  -0.00037  -0.00012  -0.00067  -0.00079   2.07821
    R6        2.72670   0.00073  -0.00049   0.00326   0.00277   2.72947
    R7        2.61777   0.00039   0.00030   0.00030   0.00060   2.61836
    R8        2.07399  -0.00042  -0.00008  -0.00090  -0.00097   2.07301
    R9        2.71546   0.00001  -0.00020   0.00069   0.00049   2.71595
   R10        2.07740  -0.00021  -0.00008  -0.00029  -0.00037   2.07703
   R11        2.74706   0.00006  -0.00015   0.00055   0.00040   2.74746
   R12        2.73347   0.00094  -0.00028   0.00282   0.00254   2.73601
   R13        2.73357  -0.00039  -0.00025   0.00023  -0.00003   2.73354
   R14        2.68677   0.00176  -0.00049   0.00509   0.00460   2.69137
   R15        2.09204   0.00026  -0.00020   0.00137   0.00117   2.09321
   R16        2.75227   0.00587  -0.00101   0.01502   0.01400   2.76627
   R17        2.68577  -0.00204   0.00009  -0.00398  -0.00389   2.68188
   R18        2.09466   0.00012  -0.00019   0.00100   0.00081   2.09547
   R19        2.76099  -0.00075  -0.00017  -0.00111  -0.00129   2.75971
   R20        2.27170  -0.00192  -0.00026  -0.00037  -0.00063   2.27107
    A1        2.12782  -0.00026  -0.00012  -0.00111  -0.00122   2.12660
    A2        2.08529   0.00009  -0.00007   0.00065   0.00058   2.08587
    A3        2.07008   0.00017   0.00019   0.00045   0.00064   2.07072
    A4        2.09978   0.00053   0.00001   0.00196   0.00198   2.10176
    A5        2.09335  -0.00089   0.00006  -0.00363  -0.00357   2.08978
    A6        2.09006   0.00036  -0.00008   0.00167   0.00160   2.09165
    A7        2.08940  -0.00021   0.00013  -0.00082  -0.00068   2.08872
    A8        2.08459  -0.00038   0.00029  -0.00326  -0.00297   2.08162
    A9        2.10920   0.00058  -0.00042   0.00407   0.00365   2.11284
   A10        2.12184  -0.00032  -0.00001  -0.00132  -0.00133   2.12051
   A11        2.09210   0.00038  -0.00046   0.00308   0.00262   2.09472
   A12        2.06924  -0.00006   0.00047  -0.00176  -0.00129   2.06795
   A13        2.08612   0.00021  -0.00020   0.00163   0.00143   2.08755
   A14        2.16345  -0.00013  -0.00012   0.00047   0.00034   2.16379
   A15        2.03362  -0.00008   0.00033  -0.00211  -0.00177   2.03185
   A16        2.05113   0.00022   0.00028  -0.00007   0.00021   2.05134
   A17        2.15436  -0.00153  -0.00036  -0.00423  -0.00459   2.14977
   A18        2.07769   0.00131   0.00008   0.00430   0.00438   2.08207
   A19        2.23693  -0.00118  -0.00116  -0.00198  -0.00315   2.23378
   A20        1.96017   0.00181   0.00146   0.00623   0.00770   1.96787
   A21        2.08608  -0.00063  -0.00030  -0.00425  -0.00455   2.08153
   A22        1.89620   0.00037   0.00181  -0.00131   0.00048   1.89668
   A23        2.23965  -0.00137  -0.00118  -0.00197  -0.00315   2.23650
   A24        2.07214  -0.00076   0.00003  -0.00631  -0.00628   2.06586
   A25        1.97139   0.00213   0.00115   0.00828   0.00943   1.98082
   A26        2.08227   0.00097   0.00013   0.00307   0.00321   2.08548
   A27        2.09044  -0.00046   0.00018  -0.00219  -0.00202   2.08842
   A28        2.11047  -0.00051  -0.00031  -0.00088  -0.00119   2.10928
   A29        3.13147   0.00097   0.00029   0.05683   0.05713   3.18860
   A30        3.20136  -0.00062   0.00022  -0.01140  -0.01118   3.19018
   A31        3.14178   0.00000   0.00000  -0.00028  -0.00029   3.14149
   A32        3.14177   0.00000   0.00000   0.00007   0.00007   3.14184
    D1       -3.14154   0.00000   0.00000   0.00018   0.00018  -3.14136
    D2        0.00022   0.00000  -0.00001   0.00001   0.00000   0.00022
    D3       -0.00003   0.00000   0.00000   0.00008   0.00008   0.00005
    D4       -3.14146   0.00000  -0.00001  -0.00008  -0.00009  -3.14155
    D5       -0.00009   0.00000   0.00000  -0.00003  -0.00003  -0.00012
    D6        3.14108  -0.00001   0.00001  -0.00051  -0.00050   3.14058
    D7        3.14158   0.00000   0.00000   0.00006   0.00006  -3.14154
    D8       -0.00043  -0.00001   0.00001  -0.00042  -0.00041  -0.00084
    D9       -3.14156   0.00000  -0.00001  -0.00018  -0.00019   3.14143
   D10        0.00010   0.00000   0.00000  -0.00020  -0.00021  -0.00011
   D11       -0.00014   0.00000   0.00000  -0.00002  -0.00002  -0.00015
   D12        3.14153   0.00000   0.00001  -0.00004  -0.00003   3.14150
   D13       -0.00007   0.00000   0.00001   0.00005   0.00006  -0.00001
   D14       -3.14143   0.00000  -0.00001  -0.00015  -0.00016  -3.14159
   D15        3.14145   0.00000   0.00000   0.00007   0.00007   3.14153
   D16        0.00009   0.00000  -0.00001  -0.00013  -0.00014  -0.00005
   D17        0.00019   0.00000  -0.00002  -0.00007  -0.00009   0.00011
   D18       -3.14141   0.00000  -0.00001  -0.00011  -0.00011  -3.14152
[...]
 ! D16   D(16,5,6,17)           -0.4431         -DE/DX =    0.0                 !
 ! D17   D(5,6,7,8)             -0.8065         -DE/DX =    0.0                 !
 ! D18   D(5,6,7,12)           177.6811         -DE/DX =    0.0                 !
 ! D19   D(17,6,7,8)           179.6829         -DE/DX =    0.0                 !
 ! D20   D(17,6,7,12)           -1.8294         -DE/DX =    0.0                 !
 ! D21   D(6,7,8,3)              1.8285         -DE/DX =    0.0                 !
 ! D22   D(6,7,8,9)           -170.6994         -DE/DX =    0.0                 !
 ! D23   D(12,7,8,3)          -176.7365         -DE/DX =    0.0                 !
 ! D24   D(12,7,8,9)            10.7357         -DE/DX =    0.0                 !
 ! D25   D(6,7,12,11)         -169.7523         -DE/DX =    0.0                 !
 ! D26   D(6,7,12,14)            4.0255         -DE/DX =    0.0                 !
 ! D27   D(8,7,12,11)            8.7402         -DE/DX =    0.0                 !
 ! D28   D(8,7,12,14)         -177.482          -DE/DX =    0.0                 !
 ! D29   D(3,8,9,10)           169.815          -DE/DX =    0.0                 !
 ! D30   D(3,8,9,18)           -15.043          -DE/DX =    0.0                 !
 ! D31   D(7,8,9,10)           -18.0959         -DE/DX =    0.0                 !
 ! D32   D(7,8,9,18)           157.0461         -DE/DX =    0.0                 !
 ! D33   D(8,9,10,11)            4.4207         -DE/DX =    0.0                 !
 ! D34   D(18,9,10,11)        -170.4273         -DE/DX =    0.0                 !
 ! D35   D(9,10,11,12)          17.0578         -DE/DX =    0.0                 !
 ! D36   D(9,10,11,19)        -163.7532         -DE/DX =    0.0                 !
 ! D37   D(10,11,12,7)         -23.7822         -DE/DX =    0.0                 !
 ! D38   D(10,11,12,14)        162.5352         -DE/DX =    0.0                 !
 ! D39   D(19,11,12,7)         156.9988         -DE/DX =    0.0                 !
 ! D40   D(19,11,12,14)        -16.6838         -DE/DX =    0.0                 !
 --------------------------------------------------------------------------------
 GradGradGradGradGradGradGradGradGradGradGradGradGradGradGradGradGradGrad

                          Input orientation:                          
 ---------------------------------------------------------------------
 Center     Atomic      Atomic             Coordinates (Angstroms)
 Number     Number       Type             X           Y           Z
 ---------------------------------------------------------------------
      1          7           0        1.065364   -0.090090   -0.112326
      2          6           0        2.264612   -0.043710   -0.080426
      3          6           0        4.489789   -1.170362   -0.079588
      4          6           0        3.720267    0.014392   -0.053282
      5          6           0        4.389036    1.286715    0.012151
      6          6           0        5.774297    1.344930    0.058874
      7          6           0        6.582323    0.153555    0.041297
      8          6           0        5.912309   -1.143390   -0.009639
      9          6           0        6.739873   -2.331668    0.183308
     10          6           0        8.122251   -2.318529    0.044679
     11          6           0        8.718690   -1.057470   -0.203887
     12          6           0        8.031073    0.176217    0.039677
     13          7           0        9.370615    2.460186    0.206251
     14          6           0        8.742142    1.437137    0.144235
     15          1           0        3.978774   -2.142157   -0.127092
     16          1           0        3.789518    2.205996    0.025599
     17          1           0        6.280705    2.318606    0.102536
     18          1           0        6.202642   -3.230998    0.530524
     19          1           0        9.752590   -0.986101   -0.586549
 ---------------------------------------------------------------------
                    Distance matrix (angstroms):
                    1          2          3          4          5
     1  N    0.000000
     2  C    1.200568   0.000000
     3  C    3.590926   2.494145   0.000000
     4  C    2.657614   1.457067   1.412974   0.000000
     5  C    3.599706   2.508342   2.460852   1.438868   0.000000
     6  C    4.925713   3.776985   2.827689   2.449888   1.387271
     7  C    5.524473   4.323929   2.479126   2.866998   2.468888
     8  C    4.961135   3.810512   1.424494   2.479397   2.868143
     9  C    6.108365   5.033117   2.545707   3.831186   4.318381
    10  C    7.402043   6.285093   3.811628   4.982928   5.189964
    11  C    7.714766   6.534377   4.232234   5.114275   4.928263
    12  C    6.972455   5.771903   3.790539   4.314843   3.807675
    13  N    8.693825   7.539692   6.089749   6.162442   5.121604
    14  C    7.831421   6.648441   4.993160   5.223259   4.357705
    15  H    3.563588   2.709984   1.098990   2.173241   3.456134
    16  H    3.565396   2.719882   3.449817   2.194117   1.097580
    17  H    5.748719   4.662941   3.925996   3.448119   2.156706
    18  H    6.055591   5.102955   2.748149   4.127416   4.895672
    19  H    8.746178   7.563999   5.290372   6.137938   5.855924
                    6          7          8          9         10
     6  C    0.000000
     7  C    1.439648   0.000000
     8  C    2.493085   1.460677   0.000000
     9  C    3.803313   2.494257   1.460854   0.000000
    10  C    4.351323   2.912488   2.503547   1.389374   0.000000
    11  C    3.809202   2.467947   2.814408   2.385209   1.416967
    12  C    2.541514   1.448928   2.496588   2.824413   2.496416
    13  N    3.768158   3.622475   4.999225   5.466552   4.941724
    14  C    2.970503   2.514557   3.832851   4.267844   3.807782
    15  H    3.926609   3.475215   2.179424   2.784947   4.150785
    16  H    2.163768   3.465909   3.965586   5.414781   6.264525
    17  H    1.098363   2.186817   3.483348   4.673586   4.989756
    18  H    4.620070   3.440741   2.175816   1.103617   2.180262
    19  H    4.655866   3.426894   3.886557   3.388170   2.198140
                   11         12         13         14         15
    11  C    0.000000
    12  C    1.433221   0.000000
    13  N    3.600989   2.653043   0.000000
    14  C    2.518889   1.451369   1.202271   0.000000
    15  H    4.863050   4.671594   7.096804   5.964447   0.000000
    16  H    5.916048   4.702233   5.589803   5.013353   4.354948
    17  H    4.175591   2.767232   3.094890   2.614842   5.024940
    18  H    3.405008   3.897845   6.521562   5.328204   2.561957
    19  H    1.104750   2.169507   3.556871   2.725276   5.906312
                   16         17         18         19
    16  H    0.000000
    17  H    2.494918   0.000000
    18  H    5.969843   5.566630   0.000000
    19  H    6.791351   4.842511   4.346211   0.000000
 Stoichiometry    C12H5N2(1-)
 Framework group  C1[X(C12H5N2)]
 Deg. of freedom    51
 Full point group                 C1      NOp   1
 Largest Abelian subgroup         C1      NOp   1
 Largest concise Abelian subgroup C1      NOp   1
                         Standard orientation:                         
 ---------------------------------------------------------------------
 Center     Atomic      Atomic             Coordinates (Angstroms)
 Number     Number       Type             X           Y           Z
 ---------------------------------------------------------------------
      1          7           0        4.904893   -0.297382   -0.032574
      2          6           0        3.704707   -0.268298   -0.024104
      3          6           0        1.555292    0.996744   -0.045144
      4          6           0        2.248030   -0.234605   -0.025427
      5          6           0        1.499323   -1.462965    0.004750
      6          6           0        0.112489   -1.434165    0.024323
      7          6           0       -0.618425   -0.193916    0.012724
      8          6           0        0.132785    1.058694   -0.002499
      9          6           0       -0.622015    2.293601    0.195933
     10          6           0       -1.999441    2.370269    0.031073
     11          6           0       -2.669011    1.153774   -0.251082
     12          6           0       -2.065408   -0.124820   -0.016594
     13          7           0       -3.549122   -2.321886    0.084055
     14          6           0       -2.856383   -1.339772    0.052100
     15          1           0        2.127313    1.934906   -0.065715
     16          1           0        2.039397   -2.418440    0.013133
     17          1           0       -0.454977   -2.374432    0.041106
     18          1           0       -0.036262    3.151255    0.569153
     19          1           0       -3.697522    1.154326   -0.654363
 ---------------------------------------------------------------------
 Rotational constants (GHZ):      1.4375991      0.4545920      0.3464124

 **********************************************************************

            Population analysis using the SCF density.

 **********************************************************************

 Orbital symmetries:
       Occupied  (A) (A) (A) (A) (A) (A) (A) (A) (A) (A) (A) (A)
                 (A) (A) (A) (A) (A) (A) (A) (A) (A) (A) (A) (A)
                 (A) (A) (A) (A) (A) (A) (A) (A) (A) (A) (A) (A)
                 (A) (A) (A) (A) (A) (A) (A) (A) (A) (A)
       Virtual   (A) (A) (A) (A) (A) (A) (A) (A) (A) (A) (A) (A)
                 (A) (A) (A) (A) (A) (A) (A) (A) (A) (A) (A) (A)
                 (A) (A) (A) (A) (A)
 The electronic state is 1-A.
 Alpha  occ. eigenvalues --  -13.98963 -13.95299  -9.90184  -9.89580  -9.87906
 Alpha  occ. eigenvalues --   -9.87644  -9.87437  -9.86855  -9.86317  -9.86294
 Alpha  occ. eigenvalues --   -9.85978  -9.82667  -9.80882  -9.70908  -0.72672
 Alpha  occ. eigenvalues --   -0.69713  -0.67377  -0.61815  -0.58093  -0.54569
 Alpha  occ. eigenvalues --   -0.51723  -0.44619  -0.42135  -0.41348  -0.35020
 Alpha  occ. eigenvalues --   -0.32917  -0.28590  -0.27884  -0.25729  -0.23696
 Alpha  occ. eigenvalues --   -0.21787  -0.20761  -0.19520  -0.17511  -0.16269
 Alpha  occ. eigenvalues --   -0.15448  -0.13979  -0.13697  -0.13518  -0.12163
 Alpha  occ. eigenvalues --   -0.10985  -0.08934  -0.07345  -0.02123   0.00653
 Alpha  occ. eigenvalues --    0.08593
 Alpha virt. eigenvalues --    0.17351   0.20025   0.24307   0.25649   0.28396
 Alpha virt. eigenvalues --    0.29611   0.34918   0.37355   0.43213   0.43909
 Alpha virt. eigenvalues --    0.47807   0.51514   0.53889   0.56184   0.57537
 Alpha virt. eigenvalues --    0.59389   0.59658   0.62839   0.67985   0.70244
 Alpha virt. eigenvalues --    0.71152   0.75290   0.77015   0.82982   0.85337
 Alpha virt. eigenvalues --    0.92499   0.93544   1.06811   1.09948
          Condensed to atoms (all electrons):
               1          2          3          4          5          6
     1  N    6.598564   0.658575  -0.000100  -0.011149  -0.000081  -0.000001
     2  C    0.658575   4.937240  -0.028590   0.423959  -0.028514   0.000844
     3  C   -0.000100  -0.028590   4.838646   0.495683  -0.029575  -0.009380
     4  C   -0.011149   0.423959   0.495683   4.781818   0.465925  -0.029264
     5  C   -0.000081  -0.028514  -0.029575   0.465925   4.827564   0.527278
     6  C   -0.000001   0.000844  -0.009380  -0.029264   0.527278   4.832720
     7  C    0.000000   0.000013  -0.027606  -0.009008  -0.027010   0.467814
     8  C   -0.000001   0.000814   0.482637  -0.026471  -0.008662  -0.025134
     9  C    0.000000  -0.000005  -0.025593   0.000676   0.000030   0.000732
    10  C    0.000000   0.000000   0.000715  -0.000007   0.000000   0.000037
    11  C    0.000000   0.000000   0.000063  -0.000001  -0.000007   0.000642
    12  C    0.000000   0.000000   0.000765   0.000034   0.000726  -0.027049
    13  N    0.000000   0.000000   0.000000   0.000000   0.000000  -0.000102
    14  C    0.000000   0.000000  -0.000005   0.000000   0.000017  -0.004275
    15  H    0.000061  -0.003380   0.385576  -0.025865   0.001273   0.000031
    16  H    0.000057  -0.003029   0.001227  -0.024961   0.387621  -0.024943
    17  H    0.000000  -0.000016   0.000022   0.001371  -0.025830   0.386351
    18  H    0.000000   0.000000  -0.003290   0.000004  -0.000001  -0.000019
    19  H    0.000000   0.000000   0.000002   0.000000   0.000000  -0.000015
               7          8          9         10         11         12
     1  N    0.000000  -0.000001   0.000000   0.000000   0.000000   0.000000
     2  C    0.000013   0.000814  -0.000005   0.000000   0.000000   0.000000
     3  C   -0.027606   0.482637  -0.025593   0.000715   0.000063   0.000765
     4  C   -0.009008  -0.026471   0.000676  -0.000007  -0.000001   0.000034
     5  C   -0.027010  -0.008662   0.000030   0.000000  -0.000007   0.000726
     6  C    0.467814  -0.025134   0.000732   0.000037   0.000642  -0.027049
     7  C    4.801477   0.453741  -0.029663  -0.008801  -0.030093   0.465168
     8  C    0.453741   4.824087   0.438884  -0.022843  -0.012521  -0.028350
     9  C   -0.029663   0.438884   4.903971   0.507047  -0.031805  -0.011049
    10  C   -0.008801  -0.022843   0.507047   5.315410   0.468839  -0.021901
    11  C   -0.030093  -0.012521  -0.031805   0.468839   4.887715   0.465878
    12  C    0.465168  -0.028350  -0.011049  -0.021901   0.465878   4.836093
    13  N    0.000013  -0.000001   0.000000  -0.000001  -0.000137  -0.011422
    14  C   -0.029274   0.000725   0.000046   0.000750  -0.026544   0.425965
    15  H    0.001283  -0.025053  -0.003160   0.000019   0.000001  -0.000016
    16  H    0.001333   0.000031   0.000000   0.000000   0.000000  -0.000015
    17  H   -0.024972   0.001212  -0.000017  -0.000001   0.000021  -0.003441
    18  H    0.001141  -0.032689   0.381009  -0.031499   0.002039   0.000035
    19  H    0.001144   0.000016   0.001914  -0.031093   0.381161  -0.032434
              13         14         15         16         17         18
     1  N    0.000000   0.000000   0.000061   0.000057   0.000000   0.000000
     2  C    0.000000   0.000000  -0.003380  -0.003029  -0.000016   0.000000
     3  C    0.000000  -0.000005   0.385576   0.001227   0.000022  -0.003290
     4  C    0.000000   0.000000  -0.025865  -0.024961   0.001371   0.000004
     5  C    0.000000   0.000017   0.001273   0.387621  -0.025830  -0.000001
     6  C   -0.000102  -0.004275   0.000031  -0.024943   0.386351  -0.000019
     7  C    0.000013  -0.029274   0.001283   0.001333  -0.024972   0.001141
     8  C   -0.000001   0.000725  -0.025053   0.000031   0.001212  -0.032689
     9  C    0.000000   0.000046  -0.003160   0.000000  -0.000017   0.381009
    10  C   -0.000001   0.000750   0.000019   0.000000  -0.000001  -0.031499
    11  C   -0.000137  -0.026544   0.000001   0.000000   0.000021   0.002039
    12  C   -0.011422   0.425965  -0.000016  -0.000015  -0.003441   0.000035
    13  N    6.626423   0.653369   0.000000   0.000000  -0.000081   0.000000
    14  C    0.653369   4.950488   0.000000   0.000000   0.001611   0.000001
    15  H    0.000000   0.000000   0.603659  -0.000033   0.000002   0.001057
    16  H    0.000000   0.000000  -0.000033   0.605210  -0.003861   0.000000
    17  H   -0.000081   0.001611   0.000002  -0.003861   0.600011   0.000000
    18  H    0.000000   0.000001   0.001057   0.000000   0.000000   0.657255
    19  H    0.000096  -0.003004   0.000000   0.000000  -0.000001  -0.000020
              19
     1  N    0.000000
     2  C    0.000000
     3  C    0.000002
     4  C    0.000000
     5  C    0.000000
     6  C   -0.000015
     7  C    0.001144
     8  C    0.000016
     9  C    0.001914
    10  C   -0.031093
    11  C    0.381161
    12  C   -0.032434
    13  N    0.000096
    14  C   -0.003004
    15  H    0.000000
    16  H    0.000000
    17  H   -0.000001
    18  H   -0.000020
    19  H    0.646858
 Mulliken charges:
               1
     1  N   -0.245925
     2  C    0.042089
     3  C   -0.081196
     4  C   -0.042744
     5  C   -0.090753
     6  C   -0.096267
     7  C   -0.006703
     8  C   -0.020422
     9  C   -0.133018
    10  C   -0.176670
    11  C   -0.105253
    12  C   -0.058989
    13  N   -0.268157
    14  C    0.030131
    15  H    0.064545
    16  H    0.061362
    17  H    0.067620
    18  H    0.024975
    19  H    0.035375
 Sum of Mulliken charges =  -1.00000
 Mulliken charges with hydrogens summed into heavy atoms:
               1
     1  N   -0.245925
     2  C    0.042089
     3  C   -0.016651
     4  C   -0.042744
     5  C   -0.029391
     6  C   -0.028647
     7  C   -0.006703
     8  C   -0.020422
     9  C   -0.108043
    10  C   -0.176670
    11  C   -0.069878
    12  C   -0.058989
    13  N   -0.268157
    14  C    0.030131
 Electronic spatial extent (au):  <R**2>=           2919.1413
 Charge=             -1.0000 electrons
 Dipole moment (field-independent basis, Debye):
    X=              2.3425    Y=             -1.0401    Z=             -0.1969  Tot=              2.5706
 Quadrupole moment (field-independent basis, Debye-Ang):
   XX=           -131.0494   YY=            -93.4843   ZZ=            -74.4606
   XY=             -0.6857   XZ=              1.0142   YZ=             -0.1094
 Traceless Quadrupole moment (field-independent basis, Debye-Ang):
   XX=            -31.3846   YY=              6.1804   ZZ=             25.2041
   XY=             -0.6857   XZ=              1.0142   YZ=             -0.1094
 Octapole moment (field-independent basis, Debye-Ang**2):
  XXX=            -86.6195  YYY=            -21.9266  ZZZ=              0.0548  XYY=             66.8355
  XXY=             35.8774  XXZ=             -1.7399  XZZ=              1.4190  YZZ=             -2.5399
  YYZ=             -1.8558  XYZ=             -0.1942
 Hexadecapole moment (field-independent basis, Debye-Ang**3):
 XXXX=          -3917.6244 YYYY=          -1102.8936 ZZZZ=            -66.0373 XXXY=            -66.9615
 XXXZ=             17.5627 YYYX=              3.3561 YYYZ=             -0.1026 ZZZX=             -0.9554
 ZZZY=             -0.7341 XXYY=           -789.4755 XXZZ=           -457.8752 YYZZ=           -173.3796
 XXYZ=              1.4161 YYXZ=              6.5434 ZZXY=              6.7612
 N-N= 6.938829591430D+02 E-N=-2.709617179323D+03  KE= 5.546195113619D+02
 1\1\GINC-N047\FOpt\RB3LYP\STO-3G\C12H5N2(1-)\R2532\15-Jun-2021\0\\#N B
 3LYP/STO-3G OPT\\2Naph\\-1,1\N,1.0653638196,-0.0900896762,-0.112326499
 8\C,2.2646116159,-0.0437099319,-0.0804264395\C,4.4897889489,-1.1703616
 371,-0.0795878076\C,3.7202671467,0.0143916064,-0.0532818954\C,4.389036
 4975,1.2867146707,0.0121514716\C,5.7742974403,1.3449296536,0.058874294
 9\C,6.5823229647,0.1535550104,0.0412967955\C,5.9123091311,-1.143389724
 5,-0.0096394941\C,6.7398725931,-2.3316675822,0.1833076652\C,8.12225089
 78,-2.3185289426,0.0446790189\C,8.7186903898,-1.0574698197,-0.20388732
 4\C,8.031072742,0.1762165212,0.0396765527\N,9.3706148304,2.4601860864,
 0.2062513816\C,8.7421415922,1.4371367426,0.1442347261\H,3.97877396,-2.
 1421570701,-0.1270920986\H,3.7895175902,2.205996124,0.0255987881\H,6.2
 807052513,2.3186063111,0.1025356462\H,6.2026421519,-3.2309976718,0.530
 5237346\H,9.7525904368,-0.9861006702,-0.5865485165\\Version=ES64L-G09R
 evD.01\State=1-A\HF=-562.5176267\RMSD=8.231e-09\RMSF=2.516e-05\Dipole=
 -0.9440521,0.351684,-0.0890106\Quadrupole=-23.1139674,4.4235668,18.690
 4005,-2.2422981,-1.5864392,-0.2633366\PG=C01 [X(C12H5N2)]\\@


 ALL OUR THINKING ABOUT NATURE MUST NECESSARILY MOVE IN CIRCLES OR SPIRALS;
 FOR WE CAN ONLY UNDERSTAND NATURE IF WE THINK ABOUT HER, AND WE CAN ONLY
 THINK BECAUSE OUR BRAIN IS BUILT IN ACCORDANCE WITH NATURE'S LAWS.

                                             -- TIMOTHY FERRIS, "GALAXIES"
 Job cpu time:       0 days  0 hours 11 minutes 23.2 seconds.
 File lengths (MBytes):  RWF=      5 Int=      0 D2E=      0 Chk=      2 Scr=      1
 Normal termination of Gaussian 09 at Tue Jun 15 11:20:21 2021.
