 Entering Gaussian System, Link 0=/usr/local/apps//g09/g09
 Input=25.com
 Output=25.out
 Initial command:
 /usr/local/apps//g09/l1.exe "/tmp/bnp.472650.sequoia/Gau-26945.inp" -scrdir="/tmp/bnp.472650.sequoia/"
 Entering Link 1 = /usr/local/apps//g09/l1.exe PID=     26952.
  
 Copyright (c) 1988,1990,1992,1993,1995,1998,2003,2009,2013,
            Gaussian, Inc.  All Rights Reserved.
  
 This is part of the Gaussian(R) 09 program.  It is based on
 the Gaussian(R) 03 system (copyright 2003, Gaussian, Inc.),
 the Gaussian(R) 98 system (copyright 1998, Gaussian, Inc.),
 the Gaussian(R) 94 system (copyright 1995, Gaussian, Inc.),
 the Gaussian 92(TM) system (copyright 1992, Gaussian, Inc.),
 the Gaussian 90(TM) system (copyright 1990, Gaussian, Inc.),
 the Gaussian 88(TM) system (copyright 1988, Gaussian, Inc.),
 the Gaussian 86(TM) system (copyright 1986, Carnegie Mellon
 University), and the Gaussian 82(TM) system (copyright 1983,
 Carnegie Mellon University). Gaussian is a federally registered
 trademark of Gaussian, Inc.
  
 This software contains proprietary and confidential information,
 including trade secrets, belonging to Gaussian, Inc.
  
 This software is provided under written license and may be
 used, copied, transmitted, or stored only in accord with that
 written license.
  
 The following legend is applicable only to US Government
 contracts under FAR:
  
                    RESTRICTED RIGHTS LEGEND
  
 Use, reproduction and disclosure by the US Government is
 subject to restrictions as set forth in subparagraphs (a)
 and (c) of the Commercial Computer Software - Restricted
 Rights clause in FAR 52.227-19.
  
 Gaussian, Inc.
 340 Quinnipiac St., Bldg. 40, Wallingford CT 06492
  
  
 ---------------------------------------------------------------
 Warning -- This program may not be used in any manner that
 competes with the business of Gaussian, Inc. or will provide
 assistance to any competitor of Gaussian, Inc.  The licensee
 of this program is prohibited from giving any competitor of
 Gaussian, Inc. access to this program.  By using this program,
 the user acknowledges that Gaussian, Inc. is engaged in the
 business of creating and licensing software in the field of
 computational chemistry and represents and warrants to the
 licensee that it is not a competitor of Gaussian, Inc. and that
 it will not use this program in any manner prohibited above.
 ---------------------------------------------------------------
  

 Cite this work as:
 Gaussian 09, Revision D.01,
 M. J. Frisch, G. W. Trucks, H. B. Schlegel, G. E. Scuseria, 
 M. A. Robb, J. R. Cheeseman, G. Scalmani, V. Barone, B. Mennucci, 
 G. A. Petersson, H. Nakatsuji, M. Caricato, X. Li, H. P. Hratchian, 
 A. F. Izmaylov, J. Bloino, G. Zheng, J. L. Sonnenberg, M. Hada, 
 M. Ehara, K. Toyota, R. Fukuda, J. Hasegawa, M. Ishida, T. Nakajima, 
 Y. Honda, O. Kitao, H. Nakai, T. Vreven, J. A. Montgomery, Jr., 
 J. E. Peralta, F. Ogliaro, M. Bearpark, J. J. Heyd, E. Brothers, 
 K. N. Kudin, V. N. Staroverov, T. Keith, R. Kobayashi, J. Normand, 
 K. Raghavachari, A. Rendell, J. C. Burant, S. S. Iyengar, J. Tomasi, 
 M. Cossi, N. Rega, J. M. Millam, M. Klene, J. E. Knox, J. B. Cross, 
 V. Bakken, C. Adamo, J. Jaramillo, R. Gomperts, R. E. Stratmann, 
 O. Yazyev, A. J. Austin, R. Cammi, C. Pomelli, J. W. Ochterski, 
 R. L. Martin, K. Morokuma, V. G. Zakrzewski, G. A. Voth, 
 P. Salvador, J. J. Dannenberg, S. Dapprich, A. D. Daniels, 
 O. Farkas, J. B. Foresman, J. V. Ortiz, J. Cioslowski, 
 and D. J. Fox, Gaussian, Inc., Wallingford CT, 2013.
 
 ******************************************
 Gaussian 09:  ES64L-G09RevD.01 24-Apr-2013
                15-Jun-2021 
 ******************************************
 -------------------
 #N B3LYP/STO-3G OPT
 -------------------
 1/14=-1,18=20,19=15,26=3,38=1/1,3;
 2/9=110,12=2,17=6,18=5,40=1/2;
 3/6=3,11=2,16=1,25=1,30=1,71=1,74=-5/1,2,3;
 4//1;
 5/5=2,38=5/2;
 6/7=2,8=2,9=2,10=2,28=1/1;
 7//1,2,3,16;
 1/14=-1,18=20,19=15,26=3/3(2);
 2/9=110/2;
 99//99;
 2/9=110/2;
 3/6=3,11=2,16=1,25=1,30=1,71=1,74=-5/1,2,3;
 4/5=5,16=3,69=1/1;
 5/5=2,38=5/2;
 7//1,2,3,16;
 1/14=-1,18=20,19=15,26=3/3(-5);
 2/9=110/2;
 6/7=2,8=2,9=2,10=2,19=2,28=1/1;
 99/9=1/99;
 -----
 2Naph
 -----
 Symbolic Z-matrix:
 Charge = -1 Multiplicity = 1
 N                     3.85779   0.68691   1.96225 
 C                     4.48511   0.63386   0.98862 
 C                     5.30872   1.44907  -1.23333 
 C                     5.32836   0.52719  -0.17571 
 C                     6.2174   -0.53462  -0.21486 
 C                     7.1934   -0.57986  -1.19722 
 C                     7.36992   0.48564  -2.07839 
 C                     6.34835   1.43543  -2.22174 
 C                     6.41542   2.29836  -3.34471 
 C                     7.56482   2.31396  -4.17477 
 C                     8.66619   1.52929  -3.84389 
 C                     8.55481   0.59525  -2.81923 
 N                     7.64719   3.68856  -6.38125 
 C                     7.60459   3.10129  -5.3735 
 H                     4.53024   2.20987  -1.27548 
 H                     7.7691   -1.50195  -1.32684 
 H                     5.57484   2.93339  -3.60105 
 H                     9.5967    1.59712  -4.39929 
 H                     9.41071  -0.03153  -2.56923 
 

 GradGradGradGradGradGradGradGradGradGradGradGradGradGradGradGradGradGrad
 Berny optimization.
 Initialization pass.
                           ----------------------------
                           !    Initial Parameters    !
                           ! (Angstroms and Degrees)  !
 --------------------------                            --------------------------
 ! Name  Definition              Value          Derivative Info.                !
 --------------------------------------------------------------------------------
 ! R1    R(1,2)                  1.1594         estimate D2E/DX2                !
 ! R2    R(2,4)                  1.4416         estimate D2E/DX2                !
 ! R3    R(3,4)                  1.4031         estimate D2E/DX2                !
 ! R4    R(3,8)                  1.4346         estimate D2E/DX2                !
 ! R5    R(3,15)                 1.0893         estimate D2E/DX2                !
 ! R6    R(4,5)                  1.3854         estimate D2E/DX2                !
 ! R7    R(5,6)                  1.3855         estimate D2E/DX2                !
 ! R8    R(6,7)                  1.3939         estimate D2E/DX2                !
 ! R9    R(6,16)                 1.0948         estimate D2E/DX2                !
 ! R10   R(7,8)                  1.4022         estimate D2E/DX2                !
 ! R11   R(7,12)                 1.4017         estimate D2E/DX2                !
 ! R12   R(8,9)                  1.4178         estimate D2E/DX2                !
 ! R13   R(9,10)                 1.4179         estimate D2E/DX2                !
 ! R14   R(9,17)                 1.0842         estimate D2E/DX2                !
 ! R15   R(10,11)                1.3922         estimate D2E/DX2                !
 ! R16   R(10,14)                1.4347         estimate D2E/DX2                !
 ! R17   R(11,12)                1.391          estimate D2E/DX2                !
 ! R18   R(11,18)                1.0858         estimate D2E/DX2                !
 ! R19   R(12,19)                1.0899         estimate D2E/DX2                !
 ! R20   R(13,14)                1.1672         estimate D2E/DX2                !
 ! A1    A(4,3,8)              120.1948         estimate D2E/DX2                !
 ! A2    A(4,3,15)             119.8701         estimate D2E/DX2                !
 ! A3    A(8,3,15)             119.8602         estimate D2E/DX2                !
 ! A4    A(2,4,3)              123.5036         estimate D2E/DX2                !
 ! A5    A(2,4,5)              117.0592         estimate D2E/DX2                !
 ! A6    A(3,4,5)              119.4214         estimate D2E/DX2                !
 ! A7    A(4,5,6)              119.8087         estimate D2E/DX2                !
 ! A8    A(5,6,7)              120.8285         estimate D2E/DX2                !
 ! A9    A(5,6,16)             118.8091         estimate D2E/DX2                !
 ! A10   A(7,6,16)             120.1592         estimate D2E/DX2                !
 ! A11   A(6,7,8)              119.3494         estimate D2E/DX2                !
 ! A12   A(6,7,12)             120.0621         estimate D2E/DX2                !
 ! A13   A(8,7,12)             120.5865         estimate D2E/DX2                !
 ! A14   A(3,8,7)              117.6437         estimate D2E/DX2                !
 ! A15   A(3,8,9)              125.0443         estimate D2E/DX2                !
 ! A16   A(7,8,9)              117.3071         estimate D2E/DX2                !
 ! A17   A(8,9,10)             120.579          estimate D2E/DX2                !
 ! A18   A(8,9,17)             120.4682         estimate D2E/DX2                !
 ! A19   A(10,9,17)            118.9226         estimate D2E/DX2                !
 ! A20   A(9,10,11)            119.7338         estimate D2E/DX2                !
 ! A21   A(9,10,14)            121.1741         estimate D2E/DX2                !
 ! A22   A(11,10,14)           119.0743         estimate D2E/DX2                !
 ! A23   A(10,11,12)           119.3543         estimate D2E/DX2                !
 ! A24   A(10,11,18)           121.4122         estimate D2E/DX2                !
 ! A25   A(12,11,18)           119.1692         estimate D2E/DX2                !
 ! A26   A(7,12,11)            120.633          estimate D2E/DX2                !
 ! A27   A(7,12,19)            119.8423         estimate D2E/DX2                !
 ! A28   A(11,12,19)           119.4889         estimate D2E/DX2                !
 ! A29   L(1,2,4,15,-1)        183.1503         estimate D2E/DX2                !
 ! A30   L(10,14,13,18,-1)     178.4535         estimate D2E/DX2                !
 ! A31   L(1,2,4,15,-2)        177.9587         estimate D2E/DX2                !
 ! A32   L(10,14,13,18,-2)     176.6938         estimate D2E/DX2                !
 ! D1    D(8,3,4,2)            167.45           estimate D2E/DX2                !
 ! D2    D(8,3,4,5)            -11.0586         estimate D2E/DX2                !
 ! D3    D(15,3,4,2)            -9.3992         estimate D2E/DX2                !
 ! D4    D(15,3,4,5)           172.0922         estimate D2E/DX2                !
 ! D5    D(4,3,8,7)             -0.5349         estimate D2E/DX2                !
 ! D6    D(4,3,8,9)            178.6291         estimate D2E/DX2                !
 ! D7    D(15,3,8,7)           176.3146         estimate D2E/DX2                !
 ! D8    D(15,3,8,9)            -4.5214         estimate D2E/DX2                !
 ! D9    D(2,4,5,6)           -170.0133         estimate D2E/DX2                !
 ! D10   D(3,4,5,6)              8.5902         estimate D2E/DX2                !
 ! D11   D(4,5,6,7)              5.64           estimate D2E/DX2                !
 ! D12   D(4,5,6,16)          -169.1876         estimate D2E/DX2                !
 ! D13   D(5,6,7,8)            -17.4576         estimate D2E/DX2                !
 ! D14   D(5,6,7,12)           163.0544         estimate D2E/DX2                !
 ! D15   D(16,6,7,8)           157.3005         estimate D2E/DX2                !
 ! D16   D(16,6,7,12)          -22.1875         estimate D2E/DX2                !
 ! D17   D(6,7,8,3)             14.5224         estimate D2E/DX2                !
 ! D18   D(6,7,8,9)           -164.7073         estimate D2E/DX2                !
 ! D19   D(12,7,8,3)          -165.9924         estimate D2E/DX2                !
 ! D20   D(12,7,8,9)            14.7779         estimate D2E/DX2                !
 ! D21   D(6,7,12,11)          170.2262         estimate D2E/DX2                !
 ! D22   D(6,7,12,19)          -11.96           estimate D2E/DX2                !
 ! D23   D(8,7,12,11)           -9.2554         estimate D2E/DX2                !
 ! D24   D(8,7,12,19)          168.5584         estimate D2E/DX2                !
 ! D25   D(3,8,9,10)           172.3752         estimate D2E/DX2                !
 ! D26   D(3,8,9,17)            -9.6461         estimate D2E/DX2                !
 ! D27   D(7,8,9,10)            -8.4583         estimate D2E/DX2                !
 ! D28   D(7,8,9,17)           169.5204         estimate D2E/DX2                !
 ! D29   D(8,9,10,11)           -3.5161         estimate D2E/DX2                !
 ! D30   D(8,9,10,14)          174.9365         estimate D2E/DX2                !
 ! D31   D(17,9,10,11)         178.4743         estimate D2E/DX2                !
 ! D32   D(17,9,10,14)          -3.0731         estimate D2E/DX2                !
 ! D33   D(9,10,11,12)           9.3986         estimate D2E/DX2                !
 ! D34   D(9,10,11,18)        -173.5434         estimate D2E/DX2                !
 ! D35   D(14,10,11,12)       -169.0865         estimate D2E/DX2                !
 ! D36   D(14,10,11,18)          7.9715         estimate D2E/DX2                !
 ! D37   D(10,11,12,7)          -3.1722         estimate D2E/DX2                !
 ! D38   D(10,11,12,19)        179.0064         estimate D2E/DX2                !
 ! D39   D(18,11,12,7)         179.7033         estimate D2E/DX2                !
 ! D40   D(18,11,12,19)          1.8818         estimate D2E/DX2                !
 --------------------------------------------------------------------------------
 Trust Radius=3.00D-01 FncErr=1.00D-07 GrdErr=1.00D-06
 Number of steps in this run=    102 maximum allowed number of steps=    114.
 GradGradGradGradGradGradGradGradGradGradGradGradGradGradGradGradGradGrad

                          Input orientation:                          
 ---------------------------------------------------------------------
 Center     Atomic      Atomic             Coordinates (Angstroms)
 Number     Number       Type             X           Y           Z
 ---------------------------------------------------------------------
      1          7           0        3.857790    0.686910    1.962250
      2          6           0        4.485110    0.633860    0.988620
      3          6           0        5.308720    1.449070   -1.233330
      4          6           0        5.328360    0.527190   -0.175710
      5          6           0        6.217400   -0.534620   -0.214860
      6          6           0        7.193400   -0.579860   -1.197220
      7          6           0        7.369920    0.485640   -2.078390
      8          6           0        6.348350    1.435430   -2.221740
      9          6           0        6.415420    2.298360   -3.344710
     10          6           0        7.564820    2.313960   -4.174770
     11          6           0        8.666190    1.529290   -3.843890
     12          6           0        8.554810    0.595250   -2.819230
     13          7           0        7.647190    3.688560   -6.381250
     14          6           0        7.604590    3.101290   -5.373500
     15          1           0        4.530240    2.209870   -1.275480
     16          1           0        7.769100   -1.501950   -1.326840
     17          1           0        5.574840    2.933390   -3.601050
     18          1           0        9.596700    1.597120   -4.399290
     19          1           0        9.410710   -0.031530   -2.569230
 ---------------------------------------------------------------------
                    Distance matrix (angstroms):
                    1          2          3          4          5
     1  N    0.000000
     2  C    1.159440   0.000000
     3  C    3.591353   2.505985   0.000000
     4  C    2.599800   1.441566   1.403142   0.000000
     5  C    3.435070   2.411335   2.407905   1.385412   0.000000
     6  C    4.765842   3.685898   2.769455   2.397377   1.385516
     7  C    5.357456   4.213152   2.427111   2.791037   2.417018
     8  C    4.926352   3.797445   1.434563   2.459983   2.815282
     9  C    6.107542   5.027366   2.530613   3.789631   4.226222
    10  C    7.352032   6.242431   3.806585   4.918006   5.060715
    11  C    7.585616   6.452626   4.253712   5.059729   4.840057
    12  C    6.703204   5.573479   3.712302   4.171668   3.677341
    13  N    9.642793   8.581662   6.081516   7.340297   7.609462
    14  C    8.583762   7.503062   5.014166   6.230910   6.461865
    15  H    3.640672   2.758984   1.089323   2.162846   3.391703
    16  H    5.559457   4.550564   3.843271   3.376347   2.140093
    17  H    6.240612   5.247897   2.807156   4.193269   4.889403
    18  H    8.615844   7.489045   5.332166   6.099353   5.785623
    19  H    7.203151   6.112493   4.561045   4.765153   3.999173
                    6          7          8          9         10
     6  C    0.000000
     7  C    1.393883   0.000000
     8  C    2.413534   1.402232   0.000000
     9  C    3.674387   2.408441   1.417818   0.000000
    10  C    4.168687   2.788467   2.462913   1.417873   0.000000
    11  C    3.690865   2.426213   2.830647   2.430353   1.392194
    12  C    2.421825   1.401721   2.435439   2.784547   2.402401
    13  N    6.730490   5.371236   4.905620   3.559563   2.600935
    14  C    5.582227   4.213602   3.779791   2.484917   1.434721
    15  H    3.857608   3.417809   2.191048   2.800615   4.198261
    16  H    1.094752   2.162102   3.383427   4.510721   4.765879
    17  H    4.554235   3.395922   2.178233   1.084227   2.161682
    18  H    4.557230   3.403015   3.914032   3.424094   2.166288
    19  H    2.664496   2.161761   3.413322   3.873179   3.389158
                   11         12         13         14         15
    11  C    0.000000
    12  C    1.390958   0.000000
    13  N    3.484107   4.804199   0.000000
    14  C    2.436778   3.702357   1.167159   0.000000
    15  H    4.915893   4.602969   6.162044   5.200002   0.000000
    16  H    4.040882   2.691248   7.245917   6.131259   4.926506
    17  H    3.403955   3.867604   3.548863   2.699936   2.650084
    18  H    1.085780   2.141464   3.478919   2.679574   5.983533
    19  H    2.148308   1.089917   5.610755   4.576086   5.524188
                   16         17         18         19
    16  H    0.000000
    17  H    5.446012   0.000000
    18  H    4.731206   4.312559   0.000000
    19  H    2.529931   4.956743   2.456871   0.000000
 Stoichiometry    C12H5N2(1-)
 Framework group  C1[X(C12H5N2)]
 Deg. of freedom    51
 Full point group                 C1      NOp   1
 Largest Abelian subgroup         C1      NOp   1
 Largest concise Abelian subgroup C1      NOp   1
                         Standard orientation:                         
 ---------------------------------------------------------------------
 Center     Atomic      Atomic             Coordinates (Angstroms)
 Number     Number       Type             X           Y           Z
 ---------------------------------------------------------------------
      1          7           0        4.860999   -1.202499    0.344389
      2          6           0        3.792785   -0.806959    0.128130
      3          6           0        1.303692   -0.987336   -0.099561
      4          6           0        2.489583   -0.237394   -0.107188
      5          6           0        2.428642    1.130123   -0.320605
      6          6           0        1.199571    1.769191   -0.345725
      7          6           0        0.028139    1.076811   -0.043620
      8          6           0        0.031403   -0.325111   -0.072913
      9          6           0       -1.226890   -0.978248   -0.090802
     10          6           0       -2.424048   -0.242911    0.100129
     11          6           0       -2.360438    1.119391    0.379938
     12          6           0       -1.141321    1.780838    0.275022
     13          7           0       -4.767233   -1.339654   -0.167274
     14          6           0       -3.708508   -0.870353   -0.021949
     15          1           0        1.349868   -2.075031   -0.061989
     16          1           0        1.151651    2.807238   -0.690171
     17          1           0       -1.290769   -2.043337   -0.283292
     18          1           0       -3.250623    1.687346    0.632755
     19          1           0       -1.092148    2.850605    0.477749
 ---------------------------------------------------------------------
 Rotational constants (GHZ):      2.0645238      0.3697849      0.3172788
 Standard basis: STO-3G (5D, 7F)
 There are    75 symmetry adapted cartesian basis functions of A   symmetry.
 There are    75 symmetry adapted basis functions of A   symmetry.
    75 basis functions,   225 primitive gaussians,    75 cartesian basis functions
    46 alpha electrons       46 beta electrons
       nuclear repulsion energy       695.1873836835 Hartrees.
 NAtoms=   19 NActive=   19 NUniq=   19 SFac= 1.00D+00 NAtFMM=   60 NAOKFM=F Big=F
 Integral buffers will be    131072 words long.
 Raffenetti 2 integral format.
 Two-electron integral symmetry is turned on.
 One-electron integrals computed using PRISM.
 NBasis=    75 RedAO= T EigKep=  1.55D-01  NBF=    75
 NBsUse=    75 1.00D-06 EigRej= -1.00D+00 NBFU=    75
 ExpMin= 1.69D-01 ExpMax= 9.91D+01 ExpMxC= 9.91D+01 IAcc=1 IRadAn=         1 AccDes= 0.00D+00
 Harris functional with IExCor=  402 and IRadAn=       1 diagonalized for initial guess.
 HarFok:  IExCor=  402 AccDes= 0.00D+00 IRadAn=         1 IDoV= 1 UseB2=F ITyADJ=14
 ICtDFT=  3500011 ScaDFX=  1.000000  1.000000  1.000000  1.000000
 FoFCou: FMM=F IPFlag=           0 FMFlag=      100000 FMFlg1=           0
         NFxFlg=           0 DoJE=T BraDBF=F KetDBF=T FulRan=T
         wScrn=  0.000000 ICntrl=     500 IOpCl=  0 I1Cent=   200000004 NGrid=           0
         NMat0=    1 NMatS0=      1 NMatT0=    0 NMatD0=    1 NMtDS0=    0 NMtDT0=    0
 Petite list used in FoFCou.
 Keep R1 ints in memory in canonical form, NReq=4993994.
 Requested convergence on RMS density matrix=1.00D-08 within 128 cycles.
 Requested convergence on MAX density matrix=1.00D-06.
 Requested convergence on             energy=1.00D-06.
 No special actions if energy rises.
 Integral accuracy reduced to 1.0D-05 until final iterations.
 EnCoef did     7 forward-backward iterations
 Initial convergence to 1.0D-05 achieved.  Increase integral accuracy.
 SCF Done:  E(RB3LYP) =  -562.483214470     A.U. after   21 cycles
            NFock= 21  Conv=0.76D-08     -V/T= 2.0130

 **********************************************************************

            Population analysis using the SCF density.

 **********************************************************************

 Orbital symmetries:
       Occupied  (A) (A) (A) (A) (A) (A) (A) (A) (A) (A) (A) (A)
                 (A) (A) (A) (A) (A) (A) (A) (A) (A) (A) (A) (A)
                 (A) (A) (A) (A) (A) (A) (A) (A) (A) (A) (A) (A)
                 (A) (A) (A) (A) (A) (A) (A) (A) (A) (A)
       Virtual   (A) (A) (A) (A) (A) (A) (A) (A) (A) (A) (A) (A)
                 (A) (A) (A) (A) (A) (A) (A) (A) (A) (A) (A) (A)
                 (A) (A) (A) (A) (A)
 The electronic state is 1-A.
 Alpha  occ. eigenvalues --  -13.99805 -13.95152  -9.90613  -9.90494  -9.87881
 Alpha  occ. eigenvalues --   -9.87321  -9.86853  -9.86299  -9.86150  -9.86138
 Alpha  occ. eigenvalues --   -9.84811  -9.83507  -9.79881  -9.69692  -0.74791
 Alpha  occ. eigenvalues --   -0.71008  -0.68858  -0.62968  -0.58670  -0.55936
 Alpha  occ. eigenvalues --   -0.51684  -0.45798  -0.42766  -0.41272  -0.35365
 Alpha  occ. eigenvalues --   -0.34157  -0.30193  -0.27090  -0.25712  -0.23653
 Alpha  occ. eigenvalues --   -0.22892  -0.21760  -0.20053  -0.18431  -0.17526
 Alpha  occ. eigenvalues --   -0.15589  -0.15519  -0.15053  -0.14138  -0.11823
 Alpha  occ. eigenvalues --   -0.10745  -0.09761  -0.07650  -0.02803   0.01076
 Alpha  occ. eigenvalues --    0.10717
 Alpha virt. eigenvalues --    0.17122   0.20487   0.26390   0.26889   0.29928
 Alpha virt. eigenvalues --    0.31288   0.34470   0.39601   0.44974   0.46032
 Alpha virt. eigenvalues --    0.50380   0.53390   0.55667   0.56782   0.60390
 Alpha virt. eigenvalues --    0.62192   0.63698   0.64679   0.69438   0.73253
 Alpha virt. eigenvalues --    0.74335   0.78533   0.80599   0.84961   0.89543
 Alpha virt. eigenvalues --    0.97793   0.98784   1.12568   1.17795
          Condensed to atoms (all electrons):
               1          2          3          4          5          6
     1  N    6.603886   0.687381   0.000080  -0.011415  -0.000204  -0.000002
     2  C    0.687381   4.913041  -0.034083   0.416787  -0.039378   0.001417
     3  C    0.000080  -0.034083   4.885231   0.488568  -0.028974  -0.013437
     4  C   -0.011415   0.416787   0.488568   4.802796   0.468275  -0.032117
     5  C   -0.000204  -0.039378  -0.028974   0.468275   5.333825   0.505415
     6  C   -0.000002   0.001417  -0.013437  -0.032117   0.505415   4.892065
     7  C    0.000000  -0.000012  -0.032256  -0.012038  -0.026853   0.472030
     8  C   -0.000001   0.000771   0.482393  -0.028329  -0.012034  -0.034063
     9  C    0.000000  -0.000005  -0.026304   0.000718   0.000022   0.001036
    10  C    0.000000   0.000000   0.000723  -0.000007   0.000001   0.000061
    11  C    0.000000   0.000000   0.000038  -0.000001  -0.000016   0.001037
    12  C    0.000000   0.000001   0.000988   0.000069   0.001169  -0.034774
    13  N    0.000000   0.000000   0.000000   0.000000   0.000000   0.000000
    14  C    0.000000   0.000000  -0.000005   0.000000   0.000000   0.000000
    15  H    0.000045  -0.002426   0.382591  -0.025937   0.001522   0.000119
    16  H    0.000000  -0.000007   0.000020   0.002071  -0.035583   0.387125
    17  H    0.000000  -0.000001  -0.002937   0.000011  -0.000001  -0.000022
    18  H    0.000000   0.000000   0.000001   0.000000   0.000000  -0.000023
    19  H    0.000000   0.000000  -0.000022   0.000001   0.000032  -0.004646
               7          8          9         10         11         12
     1  N    0.000000  -0.000001   0.000000   0.000000   0.000000   0.000000
     2  C   -0.000012   0.000771  -0.000005   0.000000   0.000000   0.000001
     3  C   -0.032256   0.482393  -0.026304   0.000723   0.000038   0.000988
     4  C   -0.012038  -0.028329   0.000718  -0.000007  -0.000001   0.000069
     5  C   -0.026853  -0.012034   0.000022   0.000001  -0.000016   0.001169
     6  C    0.472030  -0.034063   0.001036   0.000061   0.001037  -0.034774
     7  C    4.796229   0.466258  -0.030107  -0.011356  -0.030289   0.478900
     8  C    0.466258   4.783279   0.480652  -0.027509  -0.009309  -0.029723
     9  C   -0.030107   0.480652   4.838462   0.499706  -0.031260  -0.011859
    10  C   -0.011356  -0.027509   0.499706   4.763054   0.482988  -0.031903
    11  C   -0.030289  -0.009309  -0.031260   0.482988   4.835519   0.518405
    12  C    0.478900  -0.029723  -0.011859  -0.031903   0.518405   4.837829
    13  N    0.000000  -0.000001  -0.000110  -0.011592  -0.000204  -0.000001
    14  C    0.000017   0.000863  -0.028794   0.428930  -0.032811   0.001073
    15  H    0.001361  -0.026013  -0.002795   0.000006  -0.000002  -0.000016
    16  H   -0.032302   0.001318  -0.000032   0.000000   0.000027  -0.004417
    17  H    0.001464  -0.024443   0.389074  -0.026216   0.001360   0.000056
    18  H    0.001515   0.000027   0.001367  -0.025420   0.390833  -0.026138
    19  H   -0.025584   0.001386   0.000043   0.001515  -0.027039   0.391162
              13         14         15         16         17         18
     1  N    0.000000   0.000000   0.000045   0.000000   0.000000   0.000000
     2  C    0.000000   0.000000  -0.002426  -0.000007  -0.000001   0.000000
     3  C    0.000000  -0.000005   0.382591   0.000020  -0.002937   0.000001
     4  C    0.000000   0.000000  -0.025937   0.002071   0.000011   0.000000
     5  C    0.000000   0.000000   0.001522  -0.035583  -0.000001   0.000000
     6  C    0.000000   0.000000   0.000119   0.387125  -0.000022  -0.000023
     7  C    0.000000   0.000017   0.001361  -0.032302   0.001464   0.001515
     8  C   -0.000001   0.000863  -0.026013   0.001318  -0.024443   0.000027
     9  C   -0.000110  -0.028794  -0.002795  -0.000032   0.389074   0.001367
    10  C   -0.011592   0.428930   0.000006   0.000000  -0.026216  -0.025420
    11  C   -0.000204  -0.032811  -0.000002   0.000027   0.001360   0.390833
    12  C   -0.000001   0.001073  -0.000016  -0.004417   0.000056  -0.026138
    13  N    6.580595   0.682979   0.000000   0.000000   0.000063   0.000056
    14  C    0.682979   4.898838   0.000000   0.000000  -0.003470  -0.003777
    15  H    0.000000   0.000000   0.627379   0.000004   0.000784   0.000000
    16  H    0.000000   0.000000   0.000004   0.654270   0.000001  -0.000001
    17  H    0.000063  -0.003470   0.000784   0.000001   0.597939  -0.000037
    18  H    0.000056  -0.003777   0.000000  -0.000001  -0.000037   0.606372
    19  H    0.000000  -0.000022   0.000001   0.000930   0.000002  -0.004041
              19
     1  N    0.000000
     2  C    0.000000
     3  C   -0.000022
     4  C    0.000001
     5  C    0.000032
     6  C   -0.004646
     7  C   -0.025584
     8  C    0.001386
     9  C    0.000043
    10  C    0.001515
    11  C   -0.027039
    12  C    0.391162
    13  N    0.000000
    14  C   -0.000022
    15  H    0.000001
    16  H    0.000930
    17  H    0.000002
    18  H   -0.004041
    19  H    0.607112
 Mulliken charges:
               1
     1  N   -0.279770
     2  C    0.056513
     3  C   -0.102615
     4  C   -0.069454
     5  C   -0.167218
     6  C   -0.141221
     7  C   -0.016979
     8  C   -0.025520
     9  C   -0.079814
    10  C   -0.042979
    11  C   -0.099277
    12  C   -0.090821
    13  N   -0.251785
    14  C    0.056178
    15  H    0.043379
    16  H    0.026575
    17  H    0.066373
    18  H    0.059267
    19  H    0.059170
 Sum of Mulliken charges =  -1.00000
 Mulliken charges with hydrogens summed into heavy atoms:
               1
     1  N   -0.279770
     2  C    0.056513
     3  C   -0.059236
     4  C   -0.069454
     5  C   -0.167218
     6  C   -0.114646
     7  C   -0.016979
     8  C   -0.025520
     9  C   -0.013442
    10  C   -0.042979
    11  C   -0.040010
    12  C   -0.031651
    13  N   -0.251785
    14  C    0.056178
 Electronic spatial extent (au):  <R**2>=           3166.8788
 Charge=             -1.0000 electrons
 Dipole moment (field-independent basis, Debye):
    X=             -4.6739    Y=              0.5283    Z=              0.3389  Tot=              4.7158
 Quadrupole moment (field-independent basis, Debye-Ang):
   XX=           -149.3648   YY=            -80.4383   ZZ=            -74.6315
   XY=             -6.0099   XZ=             -2.4479   YZ=              1.8522
 Traceless Quadrupole moment (field-independent basis, Debye-Ang):
   XX=            -47.8866   YY=             21.0398   ZZ=             26.8467
   XY=             -6.0099   XZ=             -2.4479   YZ=              1.8522
 Octapole moment (field-independent basis, Debye-Ang**2):
  XXX=            -60.7050  YYY=             -5.2111  ZZZ=              0.5713  XYY=            -10.7899
  XXY=             77.4818  XXZ=             -1.9921  XZZ=             -1.6889  YZZ=             -2.3871
  YYZ=              1.6697  XYZ=              8.0971
 Hexadecapole moment (field-independent basis, Debye-Ang**3):
 XXXX=          -5122.3848 YYYY=           -673.2873 ZZZZ=            -84.0648 XXXY=            -55.4509
 XXXZ=           -103.0241 YYYX=            -24.4133 YYYZ=              5.7378 ZZZX=              6.8950
 ZZZY=              0.1228 XXYY=           -812.0377 XXZZ=           -560.3731 YYZZ=           -130.1781
 XXYZ=             21.9078 YYXZ=             -4.2945 ZZXY=              0.3028
 N-N= 6.951873836835D+02 E-N=-2.712369294100D+03  KE= 5.552747175432D+02
 Calling FoFJK, ICntrl=      2127 FMM=F ISym2X=0 I1Cent= 0 IOpClX= 0 NMat=1 NMatS=1 NMatT=0.
 ***** Axes restored to original set *****
 -------------------------------------------------------------------
 Center     Atomic                   Forces (Hartrees/Bohr)
 Number     Number              X              Y              Z
 -------------------------------------------------------------------
      1        7          -0.060877314    0.003263326    0.088166160
      2        6           0.048435783    0.008667676   -0.068302850
      3        6          -0.014927877    0.014445435   -0.012878306
      4        6           0.008948125    0.018081322   -0.014848359
      5        6           0.012377026   -0.058181933    0.015788690
      6        6          -0.019797530   -0.023572800    0.033489309
      7        6           0.040267103   -0.019870813    0.001235926
      8        6          -0.038903851    0.027927121    0.010710729
      9        6           0.011066887    0.005623432   -0.013746140
     10        6          -0.036045859    0.015754395    0.009047757
     11        6           0.029729055   -0.031625183    0.013439328
     12        6           0.020684702    0.018258524   -0.024821168
     13        7           0.002971408    0.043781507   -0.071733832
     14        6          -0.004230485   -0.029745512    0.055451746
     15        1          -0.008278158    0.003462564   -0.008824491
     16        1           0.008822050   -0.000583497   -0.003845529
     17        1          -0.008481295    0.008233622   -0.000422621
     18        1           0.005574636    0.002127409   -0.008519770
     19        1           0.002665593   -0.006046594    0.000613421
 -------------------------------------------------------------------
 Cartesian Forces:  Max     0.088166160 RMS     0.028742891

 GradGradGradGradGradGradGradGradGradGradGradGradGradGradGradGradGradGrad
 Berny optimization.
 FormGI is forming the generalized inverse of G from B-inverse, IUseBI=4.
 Internal  Forces:  Max     0.107124201 RMS     0.019861841
 Search for a local minimum.
 Step number   1 out of a maximum of  102
 All quantities printed in internal units (Hartrees-Bohrs-Radians)
 Mixed Optimization -- RFO/linear search
 Second derivative matrix not updated -- first step.
 ITU=  0
     Eigenvalues ---    0.01539   0.01539   0.01804   0.01854   0.01888
     Eigenvalues ---    0.01899   0.01953   0.02022   0.02119   0.02129
     Eigenvalues ---    0.02145   0.02171   0.02203   0.02206   0.02246
     Eigenvalues ---    0.02310   0.04772   0.04772   0.15957   0.15976
     Eigenvalues ---    0.15978   0.15990   0.15991   0.22213   0.22886
     Eigenvalues ---    0.23359   0.23682   0.24537   0.24917   0.24991
     Eigenvalues ---    0.24994   0.34269   0.34822   0.34891   0.35305
     Eigenvalues ---    0.35488   0.38713   0.39371   0.39544   0.40036
     Eigenvalues ---    0.40318   0.42420   0.43660   0.44536   0.45734
     Eigenvalues ---    0.45946   0.46705   0.46814   0.47846   1.23221
     Eigenvalues ---    1.28161
 RFO step:  Lambda=-5.62687847D-02 EMin= 1.53891325D-02
 Linear search not attempted -- first point.
 Maximum step size (   0.300) exceeded in Quadratic search.
    -- Step size scaled by   0.927
 Iteration  1 RMS(Cart)=  0.07942927 RMS(Int)=  0.00174332
 Iteration  2 RMS(Cart)=  0.00283795 RMS(Int)=  0.00043429
 Iteration  3 RMS(Cart)=  0.00000565 RMS(Int)=  0.00043427
 Iteration  4 RMS(Cart)=  0.00000000 RMS(Int)=  0.00043427
 Variable       Old X    -DE/DX   Delta X   Delta X   Delta X     New X
                                 (Linear)    (Quad)   (Total)
    R1        2.19102   0.10712   0.00000   0.07420   0.07420   2.26522
    R2        2.72417   0.02423   0.00000   0.04991   0.04991   2.77407
    R3        2.65155   0.02188   0.00000   0.03742   0.03719   2.68875
    R4        2.71093  -0.00409   0.00000  -0.00956  -0.00982   2.70111
    R5        2.05852   0.00863   0.00000   0.01975   0.01975   2.07827
    R6        2.61805   0.05250   0.00000   0.08918   0.08921   2.70726
    R7        2.61825   0.01355   0.00000   0.02448   0.02474   2.64299
    R8        2.63406   0.05217   0.00000   0.09497   0.09517   2.72923
    R9        2.06878   0.00559   0.00000   0.01298   0.01298   2.08176
   R10        2.64984   0.05850   0.00000   0.11021   0.11034   2.76018
   R11        2.64887   0.03713   0.00000   0.06976   0.06996   2.71883
   R12        2.67929   0.01595   0.00000   0.03011   0.02995   2.70924
   R13        2.67939  -0.00416   0.00000  -0.01048  -0.01073   2.66867
   R14        2.04889   0.01150   0.00000   0.02592   0.02592   2.07481
   R15        2.63087   0.04771   0.00000   0.08224   0.08216   2.71303
   R16        2.71123   0.02129   0.00000   0.04294   0.04294   2.75417
   R17        2.62853   0.00549   0.00000   0.00990   0.01002   2.63855
   R18        2.05183   0.00925   0.00000   0.02094   0.02094   2.07276
   R19        2.05964   0.00571   0.00000   0.01308   0.01308   2.07273
   R20        2.20561   0.08407   0.00000   0.06047   0.06047   2.26608
    A1        2.09780  -0.00400   0.00000  -0.02023  -0.02113   2.07666
    A2        2.09213   0.00747   0.00000   0.03316   0.03360   2.12573
    A3        2.09196  -0.00353   0.00000  -0.01363  -0.01327   2.07869
    A4        2.15554  -0.02070   0.00000  -0.05964  -0.05940   2.09615
    A5        2.04307   0.00106   0.00000   0.00617   0.00641   2.04948
    A6        2.08430   0.01972   0.00000   0.05406   0.05326   2.13756
    A7        2.09106  -0.01858   0.00000  -0.05674  -0.05655   2.03450
    A8        2.10886   0.00530   0.00000   0.02467   0.02500   2.13386
    A9        2.07361   0.00449   0.00000   0.01888   0.01866   2.09226
   A10        2.09717  -0.00971   0.00000  -0.04258  -0.04275   2.05442
   A11        2.08304  -0.00802   0.00000  -0.02299  -0.02290   2.06014
   A12        2.09548   0.02231   0.00000   0.06052   0.06020   2.15568
   A13        2.10463  -0.01430   0.00000  -0.03778  -0.03795   2.06668
   A14        2.05327   0.00483   0.00000   0.01281   0.01228   2.06555
   A15        2.18243  -0.00909   0.00000  -0.03042  -0.03002   2.15241
   A16        2.04739   0.00426   0.00000   0.01760   0.01774   2.06513
   A17        2.10450   0.00323   0.00000   0.00797   0.00734   2.11184
   A18        2.10257  -0.00262   0.00000  -0.00822  -0.00794   2.09463
   A19        2.07559  -0.00057   0.00000   0.00058   0.00087   2.07646
   A20        2.08975   0.00311   0.00000   0.00435   0.00384   2.09359
   A21        2.11489  -0.00617   0.00000  -0.01621  -0.01597   2.09892
   A22        2.07824   0.00307   0.00000   0.01183   0.01209   2.09033
   A23        2.08313   0.00258   0.00000   0.00735   0.00708   2.09020
   A24        2.11904  -0.00557   0.00000  -0.02201  -0.02198   2.09706
   A25        2.07989   0.00308   0.00000   0.01552   0.01560   2.09549
   A26        2.10544   0.00213   0.00000   0.01361   0.01363   2.11907
   A27        2.09164  -0.00264   0.00000  -0.01355  -0.01366   2.07799
   A28        2.08547   0.00058   0.00000   0.00060   0.00052   2.08599
   A29        3.19658  -0.00143   0.00000  -0.01855  -0.01855   3.17803
   A30        3.11460   0.00159   0.00000   0.01414   0.01414   3.12874
   A31        3.10597   0.00606   0.00000   0.07840   0.07840   3.18437
   A32        3.08389   0.00282   0.00000   0.02511   0.02511   3.10900
    D1        2.92255  -0.00391   0.00000  -0.04658  -0.04723   2.87533
    D2       -0.19301  -0.00739   0.00000  -0.07488  -0.07567  -0.26868
    D3       -0.16405  -0.00267   0.00000  -0.03146  -0.03181  -0.19586
    D4        3.00358  -0.00615   0.00000  -0.05976  -0.06026   2.94331
    D5       -0.00934   0.00288   0.00000   0.04867   0.04781   0.03848
    D6        3.11767   0.00314   0.00000   0.04867   0.04832  -3.11720
    D7        3.07727   0.00199   0.00000   0.03503   0.03432   3.11159
    D8       -0.07891   0.00225   0.00000   0.03502   0.03483  -0.04409
    D9       -2.96729   0.00235   0.00000   0.02929   0.02827  -2.93902
   D10        0.14993   0.00525   0.00000   0.05475   0.05500   0.20493
   D11        0.09844   0.00015   0.00000  -0.01142  -0.01057   0.08787
   D12       -2.95288  -0.00043   0.00000  -0.02155  -0.02094  -2.97382
   D13       -0.30469   0.00043   0.00000  -0.00078  -0.00029  -0.30498
   D14        2.84584   0.00309   0.00000   0.03073   0.03139   2.87723
   D15        2.74541   0.00175   0.00000   0.01271   0.01294   2.75836
   D16       -0.38724   0.00442   0.00000   0.04422   0.04462  -0.34262
   D17        0.25346  -0.00167   0.00000  -0.01894  -0.01976   0.23370
   D18       -2.87468  -0.00180   0.00000  -0.01852  -0.01984  -2.89452
   D19       -2.89711  -0.00416   0.00000  -0.05011  -0.04928  -2.94639
   D20        0.25792  -0.00429   0.00000  -0.04969  -0.04935   0.20857
   D21        2.97101   0.00009   0.00000  -0.00593  -0.00634   2.96467
   D22       -0.20874   0.00210   0.00000   0.01442   0.01386  -0.19489
   D23       -0.16154   0.00275   0.00000   0.02589   0.02537  -0.13616
   D24        2.94190   0.00476   0.00000   0.04624   0.04557   2.98747
   D25        3.00851   0.00154   0.00000   0.02511   0.02490   3.03341
   D26       -0.16836   0.00276   0.00000   0.03605   0.03572  -0.13264
   D27       -0.14763   0.00181   0.00000   0.02508   0.02537  -0.12226
   D28        2.95869   0.00303   0.00000   0.03601   0.03619   2.99487
   D29       -0.06137   0.00148   0.00000   0.01922   0.01923  -0.04214
   D30        3.05322   0.00207   0.00000   0.01789   0.01760   3.07082
   D31        3.11496   0.00032   0.00000   0.00863   0.00870   3.12366
   D32       -0.05364   0.00091   0.00000   0.00730   0.00707  -0.04656
   D33        0.16404  -0.00281   0.00000  -0.04377  -0.04413   0.11991
   D34       -3.02890  -0.00076   0.00000  -0.02361  -0.02439  -3.05329
   D35       -2.95112  -0.00325   0.00000  -0.04203  -0.04207  -2.99319
   D36        0.13913  -0.00119   0.00000  -0.02187  -0.02233   0.11680
   D37       -0.05536   0.00359   0.00000   0.02759   0.02698  -0.02839
   D38        3.12425   0.00166   0.00000   0.00761   0.00700   3.13125
   D39        3.13641   0.00184   0.00000   0.00899   0.00837  -3.13840
   D40        0.03284  -0.00010   0.00000  -0.01098  -0.01161   0.02123
         Item               Value     Threshold  Converged?
 Maximum Force            0.107124     0.000450     NO 
 RMS     Force            0.019862     0.000300     NO 
 Maximum Displacement     0.296734     0.001800     NO 
 RMS     Displacement     0.079615     0.001200     NO 
 Predicted change in Energy=-3.178960D-02
 GradGradGradGradGradGradGradGradGradGradGradGradGradGradGradGradGradGrad

                          Input orientation:                          
 ---------------------------------------------------------------------
 Center     Atomic      Atomic             Coordinates (Angstroms)
 Number     Number       Type             X           Y           Z
 ---------------------------------------------------------------------
      1          7           0        3.740507    0.825307    1.944933
      2          6           0        4.462488    0.718275    0.994048
      3          6           0        5.292722    1.420288   -1.262557
      4          6           0        5.339079    0.515080   -0.165801
      5          6           0        6.219121   -0.615033   -0.137876
      6          6           0        7.214622   -0.657065   -1.119364
      7          6           0        7.427206    0.427798   -2.048735
      8          6           0        6.357275    1.407892   -2.216319
      9          6           0        6.419599    2.297714   -3.338701
     10          6           0        7.555302    2.332224   -4.177324
     11          6           0        8.690653    1.505009   -3.880931
     12          6           0        8.613748    0.565783   -2.850648
     13          7           0        7.578628    3.845585   -6.360265
     14          6           0        7.566546    3.178275   -5.364007
     15          1           0        4.495559    2.171577   -1.360509
     16          1           0        7.818016   -1.569392   -1.250284
     17          1           0        5.567113    2.949542   -3.570779
     18          1           0        9.605260    1.589260   -4.480511
     19          1           0        9.480216   -0.070889   -2.633989
 ---------------------------------------------------------------------
                    Distance matrix (angstroms):
                    1          2          3          4          5
     1  N    0.000000
     2  C    1.198705   0.000000
     3  C    3.612667   2.504871   0.000000
     4  C    2.665871   1.467975   1.422823   0.000000
     5  C    3.543473   2.478855   2.503128   1.432622   0.000000
     6  C    4.863828   3.732602   2.833655   2.408499   1.398609
     7  C    5.449692   4.258223   2.481761   2.813065   2.489648
     8  C    4.950041   3.791075   1.429367   2.457329   2.903659
     9  C    6.104285   5.009753   2.519941   3.796394   4.332385
    10  C    7.369226   6.238063   3.800890   4.930110   5.175794
    11  C    7.675065   6.500904   4.290570   5.100509   4.961200
    12  C    6.842034   5.660204   3.779078   4.234907   3.806271
    13  N    9.634810   8.577664   6.090489   7.381005   7.775827
    14  C    8.578790   7.490771   5.008262   6.251045   6.596755
    15  H    3.648081   2.767150   1.099772   2.209715   3.497241
    16  H    5.707019   4.640045   3.913495   3.415589   2.169036
    17  H    6.186432   5.199653   2.782409   4.191955   4.991606
    18  H    8.733000   7.561582   5.383471   6.162052   5.931553
    19  H    7.396888   6.242037   4.651832   4.856369   4.142633
                    6          7          8          9         10
     6  C    0.000000
     7  C    1.444247   0.000000
     8  C    2.490463   1.460624   0.000000
     9  C    3.779978   2.485130   1.433669   0.000000
    10  C    4.289876   2.859045   2.476933   1.412197   0.000000
    11  C    3.805191   2.472574   2.867928   2.465781   1.435672
    12  C    2.539735   1.438745   2.490621   2.837617   2.449631
    13  N    6.919061   5.503952   4.960477   3.587353   2.656320
    14  C    5.731551   4.309938   3.808481   2.488522   1.457444
    15  H    3.930989   3.479796   2.186690   2.762442   4.162005
    16  H    1.101618   2.186098   3.454158   4.612110   4.884587
    17  H    4.661688   3.483642   2.199000   1.097941   2.168381
    18  H    4.696641   3.465032   3.963441   3.457466   2.201418
    19  H    2.787580   2.192272   3.480517   3.933735   3.444144
                   11         12         13         14         15
    11  C    0.000000
    12  C    1.396260   0.000000
    13  N    3.586362   4.913857   0.000000
    14  C    2.502589   3.773423   1.199158   0.000000
    15  H    4.939195   4.664609   6.107796   5.145133   0.000000
    16  H    4.139292   2.784480   7.449241   6.286994   5.004570
    17  H    3.455339   3.934830   3.553916   2.695500   2.576577
    18  H    1.096860   2.164961   3.568152   2.731645   6.015193
    19  H    2.159104   1.096840   5.730614   4.655341   5.612237
                   16         17         18         19
    16  H    0.000000
    17  H    5.556260   0.000000
    18  H    4.858569   4.357133   0.000000
    19  H    2.631171   5.031198   2.486238   0.000000
 Stoichiometry    C12H5N2(1-)
 Framework group  C1[X(C12H5N2)]
 Deg. of freedom    51
 Full point group                 C1      NOp   1
 Largest Abelian subgroup         C1      NOp   1
 Largest concise Abelian subgroup C1      NOp   1
                         Standard orientation:                         
 ---------------------------------------------------------------------
 Center     Atomic      Atomic             Coordinates (Angstroms)
 Number     Number       Type             X           Y           Z
 ---------------------------------------------------------------------
      1          7           0        4.840687   -1.389826    0.353361
      2          6           0        3.770720   -0.881871    0.168842
      3          6           0        1.288672   -0.971765   -0.156323
      4          6           0        2.492077   -0.214448   -0.104232
      5          6           0        2.518780    1.202606   -0.313159
      6          6           0        1.282763    1.857050   -0.321771
      7          6           0        0.045920    1.172471   -0.026105
      8          6           0        0.035833   -0.286590   -0.092909
      9          6           0       -1.230776   -0.958056   -0.108393
     10          6           0       -2.434239   -0.245358    0.086642
     11          6           0       -2.396924    1.164309    0.356086
     12          6           0       -1.184091    1.852153    0.282264
     13          7           0       -4.781431   -1.469195   -0.134601
     14          6           0       -3.717535   -0.927990   -0.019708
     15          1           0        1.296459   -2.071292   -0.178192
     16          1           0        1.222541    2.911997   -0.633257
     17          1           0       -1.277193   -2.038759   -0.296546
     18          1           0       -3.322034    1.705219    0.589944
     19          1           0       -1.161753    2.930914    0.479326
 ---------------------------------------------------------------------
 Rotational constants (GHZ):      1.8588316      0.3671336      0.3100052
 Standard basis: STO-3G (5D, 7F)
 There are    75 symmetry adapted cartesian basis functions of A   symmetry.
 There are    75 symmetry adapted basis functions of A   symmetry.
    75 basis functions,   225 primitive gaussians,    75 cartesian basis functions
    46 alpha electrons       46 beta electrons
       nuclear repulsion energy       683.3586626727 Hartrees.
 NAtoms=   19 NActive=   19 NUniq=   19 SFac= 1.00D+00 NAtFMM=   60 NAOKFM=F Big=F
 Integral buffers will be    131072 words long.
 Raffenetti 2 integral format.
 Two-electron integral symmetry is turned on.
 One-electron integrals computed using PRISM.
 NBasis=    75 RedAO= T EigKep=  1.75D-01  NBF=    75
 NBsUse=    75 1.00D-06 EigRej= -1.00D+00 NBFU=    75
 Initial guess from the checkpoint file:  "/tmp/bnp.472650.sequoia/Gau-26952.chk"
 B after Tr=     0.000000    0.000000    0.000000
         Rot=    0.999990   -0.004023    0.000956    0.001815 Ang=  -0.52 deg.
 ExpMin= 1.69D-01 ExpMax= 9.91D+01 ExpMxC= 9.91D+01 IAcc=1 IRadAn=         1 AccDes= 0.00D+00
 Harris functional with IExCor=  402 and IRadAn=       1 diagonalized for initial guess.
 HarFok:  IExCor=  402 AccDes= 0.00D+00 IRadAn=         1 IDoV= 1 UseB2=F ITyADJ=14
 ICtDFT=  3500011 ScaDFX=  1.000000  1.000000  1.000000  1.000000
 FoFCou: FMM=F IPFlag=           0 FMFlag=      100000 FMFlg1=           0
         NFxFlg=           0 DoJE=T BraDBF=F KetDBF=T FulRan=T
         wScrn=  0.000000 ICntrl=     500 IOpCl=  0 I1Cent=   200000004 NGrid=           0
         NMat0=    1 NMatS0=      1 NMatT0=    0 NMatD0=    1 NMtDS0=    0 NMtDT0=    0
 Petite list used in FoFCou.
 Keep R1 ints in memory in canonical form, NReq=4993994.
 Requested convergence on RMS density matrix=1.00D-08 within 128 cycles.
 Requested convergence on MAX density matrix=1.00D-06.
 Requested convergence on             energy=1.00D-06.
 No special actions if energy rises.
 Integral accuracy reduced to 1.0D-05 until final iterations.
 Initial convergence to 1.0D-05 achieved.  Increase integral accuracy.
 SCF Done:  E(RB3LYP) =  -562.512164237     A.U. after   17 cycles
            NFock= 17  Conv=0.64D-08     -V/T= 2.0142
 Calling FoFJK, ICntrl=      2127 FMM=F ISym2X=0 I1Cent= 0 IOpClX= 0 NMat=1 NMatS=1 NMatT=0.
 ***** Axes restored to original set *****
 -------------------------------------------------------------------
 Center     Atomic                   Forces (Hartrees/Bohr)
 Number     Number              X              Y              Z
 -------------------------------------------------------------------
      1        7          -0.002431873    0.000957902    0.002676353
      2        6          -0.000564783    0.002675350   -0.000432625
      3        6          -0.006976073   -0.000216895    0.003832265
      4        6           0.008799289    0.008914732   -0.009557314
      5        6          -0.000171120   -0.017874998    0.006512530
      6        6          -0.009471563    0.008050100    0.001192464
      7        6           0.011197423   -0.006892984    0.001839358
      8        6          -0.002626910    0.000984177    0.001575407
      9        6           0.006174816    0.000204236   -0.004598999
     10        6          -0.007466377    0.002548863    0.003103902
     11        6           0.004598117   -0.011618549    0.006345601
     12        6          -0.002841343    0.011242813   -0.007080788
     13        7          -0.000050949    0.001663807   -0.001213233
     14        6           0.000983783    0.000927636    0.000614758
     15        1          -0.001793549   -0.002603900   -0.003120431
     16        1           0.004537842    0.001999982   -0.000557400
     17        1          -0.000443410    0.001146313    0.002115565
     18        1          -0.001227555    0.000508224   -0.002588028
     19        1          -0.000225764   -0.002616810   -0.000659385
 -------------------------------------------------------------------
 Cartesian Forces:  Max     0.017874998 RMS     0.005335913

 GradGradGradGradGradGradGradGradGradGradGradGradGradGradGradGradGradGrad
 Berny optimization.
 Using GEDIIS/GDIIS optimizer.
 FormGI is forming the generalized inverse of G from B-inverse, IUseBI=4.
 Internal  Forces:  Max     0.010618262 RMS     0.002910231
 Search for a local minimum.
 Step number   2 out of a maximum of  102
 All quantities printed in internal units (Hartrees-Bohrs-Radians)
 Mixed Optimization -- RFO/linear search
 Update second derivatives using D2CorX and points    1    2
 DE= -2.89D-02 DEPred=-3.18D-02 R= 9.11D-01
 TightC=F SS=  1.41D+00  RLast= 3.68D-01 DXNew= 5.0454D-01 1.1050D+00
 Trust test= 9.11D-01 RLast= 3.68D-01 DXMaxT set to 5.05D-01
 ITU=  1  0
 Use linear search instead of GDIIS.
     Eigenvalues ---    0.01538   0.01560   0.01813   0.01853   0.01894
     Eigenvalues ---    0.01910   0.01958   0.02023   0.02118   0.02133
     Eigenvalues ---    0.02145   0.02166   0.02201   0.02208   0.02289
     Eigenvalues ---    0.02305   0.04772   0.04775   0.15830   0.15973
     Eigenvalues ---    0.15987   0.15998   0.16004   0.22187   0.22248
     Eigenvalues ---    0.23182   0.23536   0.24368   0.24884   0.24934
     Eigenvalues ---    0.25023   0.34269   0.34815   0.34922   0.35327
     Eigenvalues ---    0.35532   0.38782   0.39313   0.39776   0.40162
     Eigenvalues ---    0.40366   0.42423   0.43691   0.44677   0.45572
     Eigenvalues ---    0.45952   0.46680   0.47619   0.51109   1.24291
     Eigenvalues ---    1.30682
 RFO step:  Lambda=-7.15615876D-03 EMin= 1.53806810D-02
 Quartic linear search produced a step of  0.18879.
 Iteration  1 RMS(Cart)=  0.09988668 RMS(Int)=  0.00348555
 Iteration  2 RMS(Cart)=  0.00556834 RMS(Int)=  0.00063241
 Iteration  3 RMS(Cart)=  0.00001882 RMS(Int)=  0.00063228
 Iteration  4 RMS(Cart)=  0.00000000 RMS(Int)=  0.00063228
 Variable       Old X    -DE/DX   Delta X   Delta X   Delta X     New X
                                 (Linear)    (Quad)   (Total)
    R1        2.26522   0.00367   0.01401  -0.01000   0.00401   2.26923
    R2        2.77407   0.00407   0.00942   0.00281   0.01223   2.78631
    R3        2.68875  -0.00371   0.00702  -0.01720  -0.01047   2.67828
    R4        2.70111  -0.00083  -0.00185  -0.00078  -0.00317   2.69794
    R5        2.07827  -0.00020   0.00373  -0.00428  -0.00056   2.07771
    R6        2.70726   0.00970   0.01684   0.00642   0.02360   2.73086
    R7        2.64299   0.00298   0.00467   0.00286   0.00811   2.65110
    R8        2.72923   0.00072   0.01797  -0.01464   0.00353   2.73276
    R9        2.08176   0.00090   0.00245   0.00063   0.00308   2.08484
   R10        2.76018   0.00298   0.02083  -0.01089   0.00949   2.76967
   R11        2.71883   0.00097   0.01321  -0.01000   0.00323   2.72207
   R12        2.70924   0.00057   0.00565  -0.00343   0.00203   2.71127
   R13        2.66867  -0.00513  -0.00202  -0.01221  -0.01426   2.65441
   R14        2.07481   0.00058   0.00489  -0.00286   0.00203   2.07684
   R15        2.71303   0.00491   0.01551  -0.00357   0.01212   2.72515
   R16        2.75417   0.00200   0.00811  -0.00209   0.00601   2.76018
   R17        2.63855  -0.00649   0.00189  -0.01823  -0.01614   2.62241
   R18        2.07276   0.00043   0.00395  -0.00244   0.00151   2.07428
   R19        2.07273   0.00121   0.00247   0.00161   0.00408   2.07680
   R20        2.26608   0.00193   0.01142  -0.00905   0.00237   2.26845
    A1        2.07666  -0.00144  -0.00399  -0.00701  -0.01284   2.06382
    A2        2.12573   0.00169   0.00634   0.00581   0.01311   2.13884
    A3        2.07869  -0.00025  -0.00250   0.00121  -0.00044   2.07825
    A4        2.09615  -0.00837  -0.01121  -0.02549  -0.03664   2.05951
    A5        2.04948   0.00192   0.00121   0.00937   0.01055   2.06003
    A6        2.13756   0.00645   0.01006   0.01602   0.02461   2.16217
    A7        2.03450  -0.01062  -0.01068  -0.04139  -0.05174   1.98277
    A8        2.13386   0.00668   0.00472   0.03159   0.03579   2.16965
    A9        2.09226   0.00025   0.00352   0.00540   0.00833   2.10059
   A10        2.05442  -0.00680  -0.00807  -0.03291  -0.04159   2.01283
   A11        2.06014  -0.00235  -0.00432  -0.00802  -0.01255   2.04759
   A12        2.15568   0.00499   0.01136   0.00819   0.02042   2.17609
   A13        2.06668  -0.00268  -0.00717  -0.00140  -0.01001   2.05667
   A14        2.06555   0.00107   0.00232  -0.00011   0.00131   2.06687
   A15        2.15241  -0.00148  -0.00567  -0.00394  -0.00789   2.14452
   A16        2.06513   0.00041   0.00335   0.00423   0.00666   2.07180
   A17        2.11184   0.00086   0.00139   0.00733   0.00697   2.11881
   A18        2.09463  -0.00191  -0.00150  -0.01302  -0.01387   2.08075
   A19        2.07646   0.00107   0.00016   0.00632   0.00713   2.08359
   A20        2.09359  -0.00055   0.00073  -0.00176  -0.00225   2.09134
   A21        2.09892   0.00007  -0.00302   0.00261   0.00018   2.09910
   A22        2.09033   0.00048   0.00228  -0.00069   0.00219   2.09252
   A23        2.09020   0.00007   0.00134   0.00024   0.00038   2.09058
   A24        2.09706  -0.00244  -0.00415  -0.01315  -0.01702   2.08004
   A25        2.09549   0.00239   0.00294   0.01385   0.01706   2.11255
   A26        2.11907   0.00244   0.00257   0.01322   0.01437   2.13344
   A27        2.07799  -0.00199  -0.00258  -0.01051  -0.01279   2.06520
   A28        2.08599  -0.00043   0.00010  -0.00210  -0.00173   2.08426
   A29        3.17803  -0.00155  -0.00350  -0.07632  -0.07982   3.09821
   A30        3.12874   0.00075   0.00267   0.01315   0.01582   3.14456
   A31        3.18437  -0.00031   0.01480  -0.03514  -0.02034   3.16403
   A32        3.10900   0.00116   0.00474   0.01962   0.02436   3.13336
    D1        2.87533  -0.00115  -0.00892  -0.03917  -0.04885   2.82648
    D2       -0.26868  -0.00291  -0.01429  -0.09126  -0.10601  -0.37469
    D3       -0.19586  -0.00110  -0.00601  -0.03932  -0.04602  -0.24188
    D4        2.94331  -0.00287  -0.01138  -0.09142  -0.10318   2.84013
    D5        0.03848   0.00160   0.00903   0.08734   0.09559   0.13407
    D6       -3.11720   0.00208   0.00912   0.10232   0.11097  -3.00623
    D7        3.11159   0.00163   0.00648   0.08770   0.09344  -3.07815
    D8       -0.04409   0.00211   0.00657   0.10268   0.10882   0.06473
    D9       -2.93902   0.00013   0.00534  -0.00259   0.00128  -2.93774
   D10        0.20493   0.00186   0.01038   0.04823   0.05852   0.26345
   D11        0.08787   0.00020  -0.00200  -0.00604  -0.00740   0.08046
   D12       -2.97382  -0.00135  -0.00395  -0.06607  -0.07042  -3.04424
   D13       -0.30498   0.00031  -0.00006   0.01128   0.01178  -0.29321
   D14        2.87723   0.00133   0.00593   0.04738   0.05387   2.93109
   D15        2.75836   0.00212   0.00244   0.07167   0.07391   2.83226
   D16       -0.34262   0.00314   0.00842   0.10777   0.11599  -0.22663
   D17        0.23370  -0.00159  -0.00373  -0.05524  -0.05954   0.17416
   D18       -2.89452  -0.00203  -0.00374  -0.06940  -0.07415  -2.96867
   D19       -2.94639  -0.00237  -0.00930  -0.08923  -0.09794  -3.04433
   D20        0.20857  -0.00281  -0.00932  -0.10338  -0.11255   0.09602
   D21        2.96467   0.00031  -0.00120   0.01358   0.01234   2.97701
   D22       -0.19489   0.00147   0.00262   0.05361   0.05587  -0.13901
   D23       -0.13616   0.00132   0.00479   0.04996   0.05467  -0.08149
   D24        2.98747   0.00248   0.00860   0.08999   0.09821   3.08568
   D25        3.03341   0.00100   0.00470   0.04395   0.04877   3.08219
   D26       -0.13264   0.00182   0.00674   0.07485   0.08136  -0.05127
   D27       -0.12226   0.00149   0.00479   0.05889   0.06415  -0.05811
   D28        2.99487   0.00230   0.00683   0.08980   0.09674   3.09162
   D29       -0.04214   0.00105   0.00363   0.03911   0.04285   0.00071
   D30        3.07082   0.00123   0.00332   0.04558   0.04876   3.11958
   D31        3.12366   0.00029   0.00164   0.00878   0.01049   3.13416
   D32       -0.04656   0.00047   0.00134   0.01526   0.01640  -0.03016
   D33        0.11991  -0.00245  -0.00833  -0.09429  -0.10278   0.01713
   D34       -3.05329  -0.00146  -0.00460  -0.05975  -0.06502  -3.11831
   D35       -2.99319  -0.00262  -0.00794  -0.10078  -0.10863  -3.10182
   D36        0.11680  -0.00163  -0.00422  -0.06624  -0.07088   0.04592
   D37       -0.02839   0.00148   0.00509   0.04853   0.05340   0.02501
   D38        3.13125   0.00033   0.00132   0.00840   0.00951   3.14076
   D39       -3.13840   0.00058   0.00158   0.01451   0.01555  -3.12285
   D40        0.02123  -0.00057  -0.00219  -0.02561  -0.02833  -0.00710
         Item               Value     Threshold  Converged?
 Maximum Force            0.010618     0.000450     NO 
 RMS     Force            0.002910     0.000300     NO 
 Maximum Displacement     0.335578     0.001800     NO 
 RMS     Displacement     0.100899     0.001200     NO 
 Predicted change in Energy=-4.178770D-03
 GradGradGradGradGradGradGradGradGradGradGradGradGradGradGradGradGradGrad

                          Input orientation:                          
 ---------------------------------------------------------------------
 Center     Atomic      Atomic             Coordinates (Angstroms)
 Number     Number       Type             X           Y           Z
 ---------------------------------------------------------------------
      1          7           0        3.686959    1.002887    1.858489
      2          6           0        4.463443    0.769576    0.972699
      3          6           0        5.263313    1.337961   -1.303711
      4          6           0        5.370154    0.507627   -0.160111
      5          6           0        6.264960   -0.623247   -0.066346
      6          6           0        7.255483   -0.639691   -1.059687
      7          6           0        7.451974    0.412169   -2.032431
      8          6           0        6.355098    1.365361   -2.223248
      9          6           0        6.424646    2.284959   -3.322332
     10          6           0        7.546102    2.332633   -4.166792
     11          6           0        8.656975    1.442832   -3.934785
     12          6           0        8.602809    0.530372   -2.890637
     13          7           0        7.599953    4.017043   -6.226134
     14          6           0        7.579254    3.259587   -5.295103
     15          1           0        4.406720    2.006555   -1.471290
     16          1           0        7.941026   -1.499440   -1.149268
     17          1           0        5.585162    2.971238   -3.501558
     18          1           0        9.537209    1.504262   -4.587678
     19          1           0        9.452419   -0.145452   -2.719696
 ---------------------------------------------------------------------
                    Distance matrix (angstroms):
                    1          2          3          4          5
     1  N    0.000000
     2  C    1.200827   0.000000
     3  C    3.549179   2.478890   0.000000
     4  C    2.674542   1.474449   1.417283   0.000000
     5  C    3.604912   2.503005   2.526006   1.445111   0.000000
     6  C    4.893688   3.729894   2.817694   2.383283   1.402902
     7  C    5.446425   4.253218   2.485631   2.801547   2.519241
     8  C    4.889881   3.761303   1.427689   2.441794   2.935117
     9  C    5.998295   4.958830   2.514027   3.777632   4.368593
    10  C    7.277721   6.193569   3.794434   4.911098   5.214615
    11  C    7.645694   6.490176   4.295403   5.091754   4.995522
    12  C    6.851500   5.667181   3.784544   4.231589   3.843566
    13  N    9.474059   8.497466   6.071871   7.354226   7.826717
    14  C    8.450830   7.429251   4.998744   6.230694   6.644070
    15  H    3.551455   2.739784   1.099478   2.212280   3.513230
    16  H    5.779734   4.663127   3.904465   3.408244   2.179365
    17  H    6.017282   5.111217   2.757120   4.157027   5.018279
    18  H    8.719511   7.563112   5.392429   6.161248   5.972969
    19  H    7.451107   6.273830   4.664133   4.862394   4.174740
                    6          7          8          9         10
     6  C    0.000000
     7  C    1.446115   0.000000
     8  C    2.486926   1.465647   0.000000
     9  C    3.789912   2.495314   1.434741   0.000000
    10  C    4.309672   2.872723   2.476180   1.404653   0.000000
    11  C    3.816710   2.476539   2.869494   2.463243   1.442085
    12  C    2.556700   1.440456   2.488939   2.830076   2.448131
    13  N    6.963908   5.532103   4.960260   3.579599   2.661020
    14  C    5.766103   4.332323   3.810897   2.484923   1.460626
    15  H    3.909922   3.482890   2.184663   2.752434   4.150636
    16  H    1.103250   2.161804   3.446111   4.619880   4.893485
    17  H    4.668138   3.491726   2.192195   1.099015   2.166942
    18  H    4.716941   3.474214   3.966819   3.449441   2.197237
    19  H    2.797576   2.187477   3.481725   3.929055   3.445146
                   11         12         13         14         15
    11  C    0.000000
    12  C    1.387718   0.000000
    13  N    3.604738   4.928299   0.000000
    14  C    2.512478   3.778589   1.200411   0.000000
    15  H    4.944822   4.669136   6.070201   5.124120   0.000000
    16  H    4.114444   2.755079   7.504831   6.321959   4.988689
    17  H    3.458286   3.929026   3.546323   2.697471   2.537977
    18  H    1.097659   2.168297   3.570934   2.723088   6.023794
    19  H    2.152166   1.098998   5.749182   4.662162   5.625721
                   16         17         18         19
    16  H    0.000000
    17  H    5.574075   0.000000
    18  H    4.836599   4.353200   0.000000
    19  H    2.565899   5.027995   2.493612   0.000000
 Stoichiometry    C12H5N2(1-)
 Framework group  C1[X(C12H5N2)]
 Deg. of freedom    51
 Full point group                 C1      NOp   1
 Largest Abelian subgroup         C1      NOp   1
 Largest concise Abelian subgroup C1      NOp   1
                         Standard orientation:                         
 ---------------------------------------------------------------------
 Center     Atomic      Atomic             Coordinates (Angstroms)
 Number     Number       Type             X           Y           Z
 ---------------------------------------------------------------------
      1          7           0        4.729964   -1.553330    0.374188
      2          6           0        3.734514   -0.909974    0.181428
      3          6           0        1.297461   -0.923109   -0.271890
      4          6           0        2.486667   -0.173490   -0.091467
      5          6           0        2.562156    1.263079   -0.229003
      6          6           0        1.309234    1.894201   -0.226904
      7          6           0        0.053340    1.212237   -0.005764
      8          6           0        0.046560   -0.246766   -0.144992
      9          6           0       -1.213413   -0.933024   -0.146416
     10          6           0       -2.421846   -0.244734    0.051063
     11          6           0       -2.408732    1.182100    0.259831
     12          6           0       -1.203597    1.869968    0.244060
     13          7           0       -4.735951   -1.556642   -0.018526
     14          6           0       -3.692733   -0.963864    0.017494
     15          1           0        1.302783   -2.010045   -0.437401
     16          1           0        1.230613    2.978081   -0.417127
     17          1           0       -1.231327   -2.021412   -0.297817
     18          1           0       -3.357235    1.706023    0.435050
     19          1           0       -1.200588    2.957402    0.403038
 ---------------------------------------------------------------------
 Rotational constants (GHZ):      1.7664799      0.3737365      0.3113053
 Standard basis: STO-3G (5D, 7F)
 There are    75 symmetry adapted cartesian basis functions of A   symmetry.
 There are    75 symmetry adapted basis functions of A   symmetry.
    75 basis functions,   225 primitive gaussians,    75 cartesian basis functions
    46 alpha electrons       46 beta electrons
       nuclear repulsion energy       683.1813385194 Hartrees.
 NAtoms=   19 NActive=   19 NUniq=   19 SFac= 1.00D+00 NAtFMM=   60 NAOKFM=F Big=F
 Integral buffers will be    131072 words long.
 Raffenetti 2 integral format.
 Two-electron integral symmetry is turned on.
 One-electron integrals computed using PRISM.
 NBasis=    75 RedAO= T EigKep=  1.76D-01  NBF=    75
 NBsUse=    75 1.00D-06 EigRej= -1.00D+00 NBFU=    75
 Initial guess from the checkpoint file:  "/tmp/bnp.472650.sequoia/Gau-26952.chk"
 B after Tr=     0.000000    0.000000    0.000000
         Rot=    0.999990   -0.004434    0.000856    0.000777 Ang=  -0.53 deg.
 ExpMin= 1.69D-01 ExpMax= 9.91D+01 ExpMxC= 9.91D+01 IAcc=1 IRadAn=         1 AccDes= 0.00D+00
 Harris functional with IExCor=  402 and IRadAn=       1 diagonalized for initial guess.
 HarFok:  IExCor=  402 AccDes= 0.00D+00 IRadAn=         1 IDoV= 1 UseB2=F ITyADJ=14
 ICtDFT=  3500011 ScaDFX=  1.000000  1.000000  1.000000  1.000000
 FoFCou: FMM=F IPFlag=           0 FMFlag=      100000 FMFlg1=           0
         NFxFlg=           0 DoJE=T BraDBF=F KetDBF=T FulRan=T
         wScrn=  0.000000 ICntrl=     500 IOpCl=  0 I1Cent=   200000004 NGrid=           0
         NMat0=    1 NMatS0=      1 NMatT0=    0 NMatD0=    1 NMtDS0=    0 NMtDT0=    0
 Petite list used in FoFCou.
 Keep R1 ints in memory in canonical form, NReq=4993994.
 Requested convergence on RMS density matrix=1.00D-08 within 128 cycles.
 Requested convergence on MAX density matrix=1.00D-06.
 Requested convergence on             energy=1.00D-06.
 No special actions if energy rises.
 Integral accuracy reduced to 1.0D-05 until final iterations.
 Initial convergence to 1.0D-05 achieved.  Increase integral accuracy.
 SCF Done:  E(RB3LYP) =  -562.516373557     A.U. after   18 cycles
            NFock= 18  Conv=0.64D-08     -V/T= 2.0141
 Calling FoFJK, ICntrl=      2127 FMM=F ISym2X=0 I1Cent= 0 IOpClX= 0 NMat=1 NMatS=1 NMatT=0.
 ***** Axes restored to original set *****
 -------------------------------------------------------------------
 Center     Atomic                   Forces (Hartrees/Bohr)
 Number     Number              X              Y              Z
 -------------------------------------------------------------------
      1        7           0.002200212   -0.001461095    0.000127183
      2        6          -0.005203026    0.004067349   -0.001157855
      3        6          -0.002175240    0.001530749    0.004842566
      4        6          -0.001679722    0.000185377   -0.002253736
      5        6           0.002311929   -0.005696590    0.003576730
      6        6           0.002408981    0.004402042   -0.003272529
      7        6          -0.001205779   -0.000216868    0.001577589
      8        6           0.003105720   -0.001507723   -0.004435959
      9        6          -0.000923561   -0.000043627    0.001045866
     10        6          -0.000132342   -0.000136232   -0.001916572
     11        6           0.001025816    0.000041118    0.001540019
     12        6           0.000041519   -0.000634425   -0.000904606
     13        7           0.000295072   -0.000691175    0.000791037
     14        6           0.000055205    0.001087291    0.000119646
     15        1           0.000212068   -0.000003939    0.000178494
     16        1           0.000646551   -0.000010183    0.000309543
     17        1           0.000051407    0.000109954    0.000542129
     18        1          -0.000684781   -0.000507180   -0.000504120
     19        1          -0.000350027   -0.000514843   -0.000205426
 -------------------------------------------------------------------
 Cartesian Forces:  Max     0.005696590 RMS     0.001997716

 GradGradGradGradGradGradGradGradGradGradGradGradGradGradGradGradGradGrad
 Berny optimization.
 Using GEDIIS/GDIIS optimizer.
 FormGI is forming the generalized inverse of G from B-inverse, IUseBI=4.
 Internal  Forces:  Max     0.005758449 RMS     0.001250313
 Search for a local minimum.
 Step number   3 out of a maximum of  102
 All quantities printed in internal units (Hartrees-Bohrs-Radians)
 Mixed Optimization -- RFO/linear search
 Update second derivatives using D2CorX and points    2    3
 DE= -4.21D-03 DEPred=-4.18D-03 R= 1.01D+00
 TightC=F SS=  1.41D+00  RLast= 4.78D-01 DXNew= 8.4853D-01 1.4332D+00
 Trust test= 1.01D+00 RLast= 4.78D-01 DXMaxT set to 8.49D-01
 ITU=  1  1  0
 Use linear search instead of GDIIS.
     Eigenvalues ---    0.01258   0.01569   0.01843   0.01861   0.01890
     Eigenvalues ---    0.01928   0.01969   0.02034   0.02073   0.02131
     Eigenvalues ---    0.02138   0.02176   0.02191   0.02207   0.02267
     Eigenvalues ---    0.03108   0.04765   0.04809   0.15497   0.15974
     Eigenvalues ---    0.15998   0.16000   0.16016   0.20158   0.22370
     Eigenvalues ---    0.23115   0.23546   0.24235   0.24828   0.24961
     Eigenvalues ---    0.25062   0.34260   0.34811   0.34922   0.35328
     Eigenvalues ---    0.35530   0.38831   0.39114   0.40072   0.40212
     Eigenvalues ---    0.40513   0.42361   0.43268   0.44533   0.44848
     Eigenvalues ---    0.45949   0.47031   0.47646   0.51056   1.24299
     Eigenvalues ---    1.30870
 RFO step:  Lambda=-2.52073514D-03 EMin= 1.25805040D-02
 Quartic linear search produced a step of  0.09218.
 Iteration  1 RMS(Cart)=  0.06082683 RMS(Int)=  0.00716945
 Iteration  2 RMS(Cart)=  0.01410576 RMS(Int)=  0.00049147
 Iteration  3 RMS(Cart)=  0.00044787 RMS(Int)=  0.00021687
 Iteration  4 RMS(Cart)=  0.00000025 RMS(Int)=  0.00021687
 Variable       Old X    -DE/DX   Delta X   Delta X   Delta X     New X
                                 (Linear)    (Quad)   (Total)
    R1        2.26923  -0.00161   0.00037   0.00097   0.00134   2.27058
    R2        2.78631   0.00152   0.00113   0.00796   0.00909   2.79539
    R3        2.67828  -0.00131  -0.00097  -0.00428  -0.00516   2.67312
    R4        2.69794   0.00345  -0.00029   0.00827   0.00789   2.70583
    R5        2.07771  -0.00020  -0.00005  -0.00036  -0.00041   2.07731
    R6        2.73086   0.00576   0.00218   0.02062   0.02294   2.75380
    R7        2.65110   0.00330   0.00075   0.00965   0.01047   2.66157
    R8        2.73276  -0.00218   0.00033  -0.00296  -0.00269   2.73007
    R9        2.08484   0.00038   0.00028   0.00217   0.00246   2.08730
   R10        2.76967  -0.00108   0.00088   0.00131   0.00185   2.77152
   R11        2.72207  -0.00017   0.00030   0.00169   0.00189   2.72396
   R12        2.71127  -0.00081   0.00019  -0.00088  -0.00077   2.71050
   R13        2.65441   0.00091  -0.00131  -0.00133  -0.00255   2.65186
   R14        2.07684  -0.00006   0.00019   0.00079   0.00098   2.07782
   R15        2.72515   0.00067   0.00112   0.00584   0.00714   2.73228
   R16        2.76018  -0.00044   0.00055   0.00106   0.00161   2.76179
   R17        2.62241  -0.00053  -0.00149  -0.00494  -0.00634   2.61606
   R18        2.07428  -0.00028   0.00014  -0.00009   0.00005   2.07433
   R19        2.07680   0.00001   0.00038   0.00125   0.00163   2.07844
   R20        2.26845  -0.00104   0.00022   0.00077   0.00099   2.26944
    A1        2.06382   0.00033  -0.00118   0.00348   0.00171   2.06554
    A2        2.13884  -0.00023   0.00121   0.00083   0.00206   2.14090
    A3        2.07825  -0.00005  -0.00004  -0.00210  -0.00211   2.07614
    A4        2.05951  -0.00313  -0.00338  -0.02520  -0.02861   2.03090
    A5        2.06003   0.00269   0.00097   0.01192   0.01287   2.07290
    A6        2.16217   0.00048   0.00227   0.01441   0.01649   2.17866
    A7        1.98277  -0.00260  -0.00477  -0.01826  -0.02320   1.95956
    A8        2.16965   0.00170   0.00330   0.01911   0.02203   2.19168
    A9        2.10059  -0.00081   0.00077  -0.00291  -0.00203   2.09856
   A10        2.01283  -0.00090  -0.00383  -0.01630  -0.02003   1.99281
   A11        2.04759   0.00102  -0.00116   0.00135  -0.00003   2.04756
   A12        2.17609  -0.00127   0.00188  -0.00032   0.00223   2.17832
   A13        2.05667   0.00025  -0.00092  -0.00192  -0.00347   2.05320
   A14        2.06687  -0.00030   0.00012   0.00105   0.00088   2.06775
   A15        2.14452  -0.00032  -0.00073  -0.00526  -0.00530   2.13922
   A16        2.07180   0.00061   0.00061   0.00419   0.00418   2.07598
   A17        2.11881  -0.00040   0.00064   0.00043   0.00044   2.11925
   A18        2.08075  -0.00018  -0.00128  -0.00527  -0.00632   2.07444
   A19        2.08359   0.00057   0.00066   0.00474   0.00563   2.08922
   A20        2.09134  -0.00035  -0.00021  -0.00165  -0.00223   2.08911
   A21        2.09910   0.00045   0.00002   0.00167   0.00177   2.10087
   A22        2.09252  -0.00009   0.00020   0.00039   0.00068   2.09320
   A23        2.09058   0.00016   0.00003   0.00097   0.00066   2.09124
   A24        2.08004  -0.00027  -0.00157  -0.00609  -0.00752   2.07252
   A25        2.11255   0.00011   0.00157   0.00512   0.00683   2.11939
   A26        2.13344  -0.00021   0.00132   0.00280   0.00347   2.13691
   A27        2.06520  -0.00014  -0.00118  -0.00453  -0.00545   2.05975
   A28        2.08426   0.00035  -0.00016   0.00155   0.00164   2.08591
   A29        3.09821   0.00469  -0.00736   0.26663   0.25927   3.35748
   A30        3.14456  -0.00068   0.00146  -0.01078  -0.00932   3.13524
   A31        3.16403  -0.00065  -0.00187  -0.04002  -0.04189   3.12214
   A32        3.13336   0.00017   0.00225   0.00962   0.01186   3.14523
    D1        2.82648   0.00073  -0.00450   0.02326   0.01880   2.84528
    D2       -0.37469   0.00166  -0.00977   0.04655   0.03684  -0.33786
    D3       -0.24188  -0.00009  -0.00424  -0.01224  -0.01643  -0.25831
    D4        2.84013   0.00084  -0.00951   0.01106   0.00161   2.84175
    D5        0.13407  -0.00071   0.00881  -0.01498  -0.00600   0.12806
    D6       -3.00623  -0.00037   0.01023   0.00608   0.01645  -2.98978
    D7       -3.07815   0.00007   0.00861   0.01937   0.02806  -3.05010
    D8        0.06473   0.00041   0.01003   0.04043   0.05052   0.11525
    D9       -2.93774  -0.00028   0.00012  -0.00837  -0.00816  -2.94590
   D10        0.26345  -0.00102   0.00539  -0.03049  -0.02530   0.23815
   D11        0.08046  -0.00036  -0.00068  -0.01685  -0.01758   0.06289
   D12       -3.04424   0.00010  -0.00649  -0.00939  -0.01590  -3.06014
   D13       -0.29321   0.00106   0.00109   0.04789   0.04909  -0.24412
   D14        2.93109   0.00110   0.00497   0.06094   0.06611   2.99720
   D15        2.83226   0.00061   0.00681   0.04086   0.04762   2.87989
   D16       -0.22663   0.00065   0.01069   0.05392   0.06464  -0.16198
   D17        0.17416  -0.00042  -0.00549  -0.03088  -0.03630   0.13786
   D18       -2.96867  -0.00074  -0.00684  -0.05105  -0.05794  -3.02661
   D19       -3.04433  -0.00053  -0.00903  -0.04295  -0.05181  -3.09614
[...]
 ! D15   D(16,6,7,8)           173.7623         -DE/DX =    0.0                 !
 ! D16   D(16,6,7,12)           -3.3529         -DE/DX =    0.0                 !
 ! D17   D(6,7,8,3)              3.8417         -DE/DX =    0.0                 !
 ! D18   D(6,7,8,9)           -176.5533         -DE/DX =    0.0                 !
 ! D19   D(12,7,8,3)          -178.8583         -DE/DX =    0.0                 !
 ! D20   D(12,7,8,9)             0.7467         -DE/DX =    0.0                 !
 ! D21   D(6,7,12,11)          176.2341         -DE/DX =    0.0                 !
 ! D22   D(6,7,12,19)           -3.1466         -DE/DX =    0.0                 !
 ! D23   D(8,7,12,11)           -0.9227         -DE/DX =    0.0                 !
 ! D24   D(8,7,12,19)          179.6966         -DE/DX =    0.0                 !
 ! D25   D(3,8,9,10)           179.1781         -DE/DX =    0.0                 !
 ! D26   D(3,8,9,17)            -0.5273         -DE/DX =    0.0                 !
 ! D27   D(7,8,9,10)            -0.4032         -DE/DX =    0.0                 !
 ! D28   D(7,8,9,17)           179.8914         -DE/DX =    0.0                 !
 ! D29   D(8,9,10,11)            0.176          -DE/DX =    0.0                 !
 ! D30   D(8,9,10,14)         -179.8879         -DE/DX =    0.0                 !
 ! D31   D(17,9,10,11)         179.8801         -DE/DX =    0.0                 !
 ! D32   D(17,9,10,14)          -0.1838         -DE/DX =    0.0                 !
 ! D33   D(9,10,11,12)          -0.3281         -DE/DX =    0.0                 !
 ! D34   D(9,10,11,18)         179.6228         -DE/DX =    0.0                 !
 ! D35   D(14,10,11,12)        179.7353         -DE/DX =    0.0                 !
 ! D36   D(14,10,11,18)         -0.3138         -DE/DX =    0.0                 !
 ! D37   D(10,11,12,7)           0.7211         -DE/DX =    0.0                 !
 ! D38   D(10,11,12,19)       -179.9081         -DE/DX =    0.0                 !
 ! D39   D(18,11,12,7)        -179.2286         -DE/DX =    0.0                 !
 ! D40   D(18,11,12,19)          0.1422         -DE/DX =    0.0                 !
 --------------------------------------------------------------------------------
 GradGradGradGradGradGradGradGradGradGradGradGradGradGradGradGradGradGrad

                          Input orientation:                          
 ---------------------------------------------------------------------
 Center     Atomic      Atomic             Coordinates (Angstroms)
 Number     Number       Type             X           Y           Z
 ---------------------------------------------------------------------
      1          7           0        3.451009    0.773426    1.687888
      2          6           0        4.310050    0.661241    0.858137
      3          6           0        5.329937    1.409639   -1.235507
      4          6           0        5.376961    0.504981   -0.159613
      5          6           0        6.340372   -0.599823    0.049694
      6          6           0        7.347109   -0.527146   -0.960379
      7          6           0        7.461664    0.435128   -2.016023
      8          6           0        6.396963    1.416992   -2.193133
      9          6           0        6.457403    2.337880   -3.286237
     10          6           0        7.530316    2.321837   -4.192522
     11          6           0        8.592875    1.353927   -4.020566
     12          6           0        8.553206    0.458577   -2.968705
     13          7           0        7.629057    4.042709   -6.216264
     14          6           0        7.581985    3.267202   -5.301476
     15          1           0        4.505294    2.127694   -1.358563
     16          1           0        8.142084   -1.295054   -0.970163
     17          1           0        5.649897    3.073039   -3.412982
     18          1           0        9.422845    1.347281   -4.739094
     19          1           0        9.364633   -0.272299   -2.844112
 ---------------------------------------------------------------------
                    Distance matrix (angstroms):
                    1          2          3          4          5
     1  N    0.000000
     2  C    1.199594   0.000000
     3  C    3.532900   2.446143   0.000000
     4  C    2.682278   1.482745   1.406473   0.000000
     5  C    3.594150   2.523108   2.590494   1.480730   0.000000
     6  C    4.887167   3.734032   2.809949   2.363893   1.427953
     7  C    5.469805   4.271369   2.470453   2.792333   2.568191
     8  C    4.914789   3.773143   1.433752   2.450994   3.016789
     9  C    6.018958   4.959645   2.517599   3.781885   4.446598
    10  C    7.322401   6.215855   3.797066   4.919579   5.286630
    11  C    7.704688   6.528717   4.290270   5.096054   5.045584
    12  C    6.914868   5.717531   3.781264   4.240481   3.889418
    13  N    9.519450   8.514534   6.084978   7.366850   7.904179
    14  C    8.493239   7.445631   5.005434   6.239452   6.717924
    15  H    3.496630   2.665025   1.100355   2.197836   3.576318
    16  H    5.774949   4.674854   3.910748   3.397502   2.183946
    17  H    6.011839   5.084724   2.758744   4.153773   5.094781
    18  H    8.791942   7.611854   5.388034   6.168492   6.018750
    19  H    7.523531   6.334584   4.657821   4.869520   4.198516
                    6          7          8          9         10
     6  C    0.000000
     7  C    1.432996   0.000000
     8  C    2.490407   1.459114   0.000000
     9  C    3.795993   2.498489   1.430582   0.000000
    10  C    4.312425   2.881238   2.469978   1.404547   0.000000
    11  C    3.801987   2.478310   2.857537   2.463258   1.447567
    12  C    2.541592   1.449005   2.483839   2.832842   2.452706
    13  N    6.970466   5.539376   4.959641   3.586680   2.658323
    14  C    5.770387   4.339277   3.806489   2.487873   1.458137
    15  H    3.909301   3.469461   2.186325   2.751515   4.149672
    16  H    1.105335   2.133149   3.449101   4.626074   4.882598
    17  H    4.675160   3.491786   2.188294   1.099359   2.169784
    18  H    4.701153   3.477552   3.955091   3.447597   2.197764
    19  H    2.771967   2.192595   3.476283   3.931983   3.451444
                   11         12         13         14         15
    11  C    0.000000
    12  C    1.381895   0.000000
    13  N    3.602720   4.924093   0.000000
    14  C    2.514608   3.778024   1.200193   0.000000
    15  H    4.938957   4.665201   6.084607   5.129432   0.000000
    16  H    4.065128   2.690430   7.501766   6.315708   5.009222
    17  H    3.462026   3.932174   3.565912   2.708704   2.534646
    18  H    1.097806   2.163410   3.558798   2.718664   6.018251
    19  H    2.150410   1.099144   5.744817   4.663104   5.619608
                   16         17         18         19
    16  H    0.000000
    17  H    5.590939   0.000000
    18  H    4.777774   4.355681   0.000000
    19  H    2.460151   5.031318   2.493468   0.000000
 Stoichiometry    C12H5N2(1-)
 Framework group  C1[X(C12H5N2)]
 Deg. of freedom    51
 Full point group                 C1      NOp   1
 Largest Abelian subgroup         C1      NOp   1
 Largest concise Abelian subgroup C1      NOp   1
                         Standard orientation:                         
 ---------------------------------------------------------------------
 Center     Atomic      Atomic             Coordinates (Angstroms)
 Number     Number       Type             X           Y           Z
 ---------------------------------------------------------------------
      1          7           0        4.770404   -1.554476    0.129455
      2          6           0        3.743250   -0.938866    0.058716
      3          6           0        1.301988   -0.921053   -0.094706
      4          6           0        2.484010   -0.161362   -0.032577
      5          6           0        2.613827    1.312702   -0.085919
      6          6           0        1.307418    1.888701   -0.062045
      7          6           0        0.049680    1.205857    0.010731
      8          6           0        0.034750   -0.251928   -0.049711
      9          6           0       -1.215125   -0.947891   -0.053161
     10          6           0       -2.434526   -0.253680    0.009158
     11          6           0       -2.427778    1.192406    0.074291
     12          6           0       -1.230088    1.881692    0.081851
     13          7           0       -4.748238   -1.562652    0.005651
     14          6           0       -3.702120   -0.974350    0.007404
     15          1           0        1.316938   -2.019357   -0.160179
     16          1           0        1.213887    2.988631   -0.118367
     17          1           0       -1.216868   -2.046220   -0.100715
     18          1           0       -3.387457    1.723845    0.116319
     19          1           0       -1.233371    2.979640    0.133002
 ---------------------------------------------------------------------
 Rotational constants (GHZ):      1.7839889      0.3715307      0.3078013

 **********************************************************************

            Population analysis using the SCF density.

 **********************************************************************

 Orbital symmetries:
       Occupied  (A) (A) (A) (A) (A) (A) (A) (A) (A) (A) (A) (A)
                 (A) (A) (A) (A) (A) (A) (A) (A) (A) (A) (A) (A)
                 (A) (A) (A) (A) (A) (A) (A) (A) (A) (A) (A) (A)
                 (A) (A) (A) (A) (A) (A) (A) (A) (A) (A)
       Virtual   (A) (A) (A) (A) (A) (A) (A) (A) (A) (A) (A) (A)
                 (A) (A) (A) (A) (A) (A) (A) (A) (A) (A) (A) (A)
                 (A) (A) (A) (A) (A)
 The electronic state is 1-A.
 Alpha  occ. eigenvalues --  -13.99884 -13.94970  -9.91090  -9.90415  -9.89070
 Alpha  occ. eigenvalues --   -9.88480  -9.87389  -9.87095  -9.86457  -9.85541
 Alpha  occ. eigenvalues --   -9.85248  -9.84965  -9.79663  -9.68143  -0.73462
 Alpha  occ. eigenvalues --   -0.69144  -0.68000  -0.62083  -0.58845  -0.54892
 Alpha  occ. eigenvalues --   -0.51637  -0.45145  -0.42763  -0.40661  -0.35072
 Alpha  occ. eigenvalues --   -0.33584  -0.30339  -0.26959  -0.25623  -0.23567
 Alpha  occ. eigenvalues --   -0.22832  -0.21291  -0.18976  -0.17765  -0.17010
 Alpha  occ. eigenvalues --   -0.15799  -0.14586  -0.14246  -0.13569  -0.11213
 Alpha  occ. eigenvalues --   -0.09910  -0.08839  -0.08261  -0.02113   0.00892
 Alpha  occ. eigenvalues --    0.10367
 Alpha virt. eigenvalues --    0.16708   0.19489   0.24875   0.26152   0.28841
 Alpha virt. eigenvalues --    0.29960   0.33428   0.38066   0.42150   0.45154
 Alpha virt. eigenvalues --    0.47349   0.49898   0.52507   0.54154   0.56595
 Alpha virt. eigenvalues --    0.57342   0.60754   0.62421   0.65739   0.68802
 Alpha virt. eigenvalues --    0.70415   0.75948   0.78232   0.81323   0.83901
 Alpha virt. eigenvalues --    0.91454   0.93158   1.05986   1.08952
          Condensed to atoms (all electrons):
               1          2          3          4          5          6
     1  N    6.617967   0.660691  -0.000029  -0.010531   0.000020  -0.000002
     2  C    0.660691   4.971227  -0.039223   0.397805  -0.032086   0.001372
     3  C   -0.000029  -0.039223   4.871012   0.498889  -0.017454  -0.011960
     4  C   -0.010531   0.397805   0.498889   4.869545   0.391709  -0.029556
     5  C    0.000020  -0.032086  -0.017454   0.391709   5.457978   0.452889
     6  C   -0.000002   0.001372  -0.011960  -0.029556   0.452889   4.940488
     7  C    0.000000   0.000005  -0.029272  -0.013112  -0.017731   0.466630
     8  C   -0.000001   0.000974   0.471982  -0.030130  -0.006037  -0.029977
     9  C    0.000000  -0.000007  -0.027799   0.000733   0.000005   0.000765
    10  C    0.000000   0.000000   0.000740  -0.000007   0.000000   0.000034
    11  C    0.000000   0.000000   0.000031   0.000000  -0.000007   0.000667
    12  C    0.000000   0.000000   0.000856   0.000048   0.000621  -0.025967
    13  N    0.000000   0.000000   0.000000   0.000000   0.000000   0.000000
    14  C    0.000000   0.000000  -0.000005   0.000000   0.000000   0.000000
    15  H    0.000049  -0.003520   0.381325  -0.022955   0.000920   0.000073
    16  H    0.000000  -0.000013   0.000009   0.002237  -0.032337   0.380036
    17  H    0.000000  -0.000001  -0.003300   0.000016   0.000000  -0.000016
    18  H    0.000000   0.000000   0.000001   0.000000   0.000000  -0.000014
    19  H    0.000000   0.000000  -0.000017   0.000001   0.000011  -0.003018
               7          8          9         10         11         12
     1  N    0.000000  -0.000001   0.000000   0.000000   0.000000   0.000000
     2  C    0.000005   0.000974  -0.000007   0.000000   0.000000   0.000000
     3  C   -0.029272   0.471982  -0.027799   0.000740   0.000031   0.000856
     4  C   -0.013112  -0.030130   0.000733  -0.000007   0.000000   0.000048
     5  C   -0.017731  -0.006037   0.000005   0.000000  -0.000007   0.000621
     6  C    0.466630  -0.029977   0.000765   0.000034   0.000667  -0.025967
     7  C    4.823869   0.448690  -0.025392  -0.008608  -0.026219   0.455457
     8  C    0.448690   4.806273   0.476932  -0.027684  -0.008618  -0.027571
     9  C   -0.025392   0.476932   4.826483   0.507087  -0.029242  -0.009417
    10  C   -0.008608  -0.027684   0.507087   4.778487   0.456941  -0.028918
    11  C   -0.026219  -0.008618  -0.029242   0.456941   4.831117   0.534049
    12  C    0.455457  -0.027571  -0.009417  -0.028918   0.534049   4.835030
    13  N    0.000000  -0.000001  -0.000104  -0.011088  -0.000080  -0.000001
    14  C    0.000013   0.000839  -0.028998   0.423142  -0.028183   0.000826
    15  H    0.001213  -0.026300  -0.003351   0.000011  -0.000001  -0.000016
    16  H   -0.035847   0.001348  -0.000021  -0.000001   0.000011  -0.003992
    17  H    0.001211  -0.024201   0.385155  -0.025583   0.001275   0.000024
    18  H    0.001311   0.000028   0.001211  -0.025103   0.387171  -0.024774
    19  H   -0.025187   0.001258   0.000021   0.001394  -0.026715   0.385548
              13         14         15         16         17         18
     1  N    0.000000   0.000000   0.000049   0.000000   0.000000   0.000000
     2  C    0.000000   0.000000  -0.003520  -0.000013  -0.000001   0.000000
     3  C    0.000000  -0.000005   0.381325   0.000009  -0.003300   0.000001
     4  C    0.000000   0.000000  -0.022955   0.002237   0.000016   0.000000
     5  C    0.000000   0.000000   0.000920  -0.032337   0.000000   0.000000
     6  C    0.000000   0.000000   0.000073   0.380036  -0.000016  -0.000014
     7  C    0.000000   0.000013   0.001213  -0.035847   0.001211   0.001311
     8  C   -0.000001   0.000839  -0.026300   0.001348  -0.024201   0.000028
     9  C   -0.000104  -0.028998  -0.003351  -0.000021   0.385155   0.001211
    10  C   -0.011088   0.423142   0.000011  -0.000001  -0.025583  -0.025103
    11  C   -0.000080  -0.028183  -0.000001   0.000011   0.001275   0.387171
    12  C   -0.000001   0.000826  -0.000016  -0.003992   0.000024  -0.024774
    13  N    6.592668   0.659658   0.000000   0.000000   0.000061   0.000057
    14  C    0.659658   4.934854   0.000000   0.000000  -0.003465  -0.002977
    15  H    0.000000   0.000000   0.621043   0.000003   0.001007   0.000000
    16  H    0.000000   0.000000   0.000003   0.667869   0.000000  -0.000001
    17  H    0.000061  -0.003465   0.001007   0.000000   0.600497  -0.000033
    18  H    0.000057  -0.002977   0.000000  -0.000001  -0.000033   0.606280
    19  H    0.000000  -0.000017   0.000000   0.001372   0.000002  -0.003908
              19
     1  N    0.000000
     2  C    0.000000
     3  C   -0.000017
     4  C    0.000001
     5  C    0.000011
     6  C   -0.003018
     7  C   -0.025187
     8  C    0.001258
     9  C    0.000021
    10  C    0.001394
    11  C   -0.026715
    12  C    0.385548
    13  N    0.000000
    14  C   -0.000017
    15  H    0.000000
    16  H    0.001372
    17  H    0.000002
    18  H   -0.003908
    19  H    0.609775
 Mulliken charges:
               1
     1  N   -0.268164
     2  C    0.042775
     3  C   -0.095785
     4  C   -0.054692
     5  C   -0.198502
     6  C   -0.142444
     7  C   -0.017031
     8  C   -0.027803
     9  C   -0.074062
    10  C   -0.040843
    11  C   -0.092200
    12  C   -0.091803
    13  N   -0.241170
    14  C    0.044314
    15  H    0.050499
    16  H    0.019327
    17  H    0.067351
    18  H    0.060752
    19  H    0.059480
 Sum of Mulliken charges =  -1.00000
 Mulliken charges with hydrogens summed into heavy atoms:
               1
     1  N   -0.268164
     2  C    0.042775
     3  C   -0.045286
     4  C   -0.054692
     5  C   -0.198502
     6  C   -0.123117
     7  C   -0.017031
     8  C   -0.027803
     9  C   -0.006710
    10  C   -0.040843
    11  C   -0.031448
    12  C   -0.032322
    13  N   -0.241170
    14  C    0.044314
 Electronic spatial extent (au):  <R**2>=           3245.6295
 Charge=             -1.0000 electrons
 Dipole moment (field-independent basis, Debye):
    X=             -5.6186    Y=              0.2774    Z=             -0.0083  Tot=              5.6255
 Quadrupole moment (field-independent basis, Debye-Ang):
   XX=           -150.2795   YY=            -84.2988   ZZ=            -74.2380
   XY=             -8.2170   XZ=             -0.4017   YZ=              0.9179
 Traceless Quadrupole moment (field-independent basis, Debye-Ang):
   XX=            -47.3408   YY=             18.6400   ZZ=             28.7008
   XY=             -8.2170   XZ=             -0.4017   YZ=              0.9179
 Octapole moment (field-independent basis, Debye-Ang**2):
  XXX=            -70.3098  YYY=             -4.6797  ZZZ=              0.4049  XYY=            -20.9020
  XXY=             83.9239  XXZ=             -3.0795  XZZ=              0.3029  YZZ=             -3.4283
  YYZ=              0.0226  XYZ=              2.7930
 Hexadecapole moment (field-independent basis, Debye-Ang**3):
 XXXX=          -5040.9434 YYYY=           -803.9609 ZZZZ=            -60.6021 XXXY=            -79.2867
 XXXZ=            -19.5172 YYYX=            -33.4385 YYYZ=              3.5709 ZZZX=              1.7983
 ZZZY=             -0.4809 XXYY=           -917.4842 XXZZ=           -551.2101 YYZZ=           -146.0527
 XXYZ=             13.9935 YYXZ=             -1.4422 ZZXY=              0.2167
 N-N= 6.819917555740D+02 E-N=-2.685829065547D+03  KE= 5.547293983109D+02
 1\1\GINC-N051\FOpt\RB3LYP\STO-3G\C12H5N2(1-)\R2532\15-Jun-2021\0\\#N B
 3LYP/STO-3G OPT\\2Naph\\-1,1\N,3.451008629,0.773425545,1.6878883885\C,
 4.3100497259,0.6612410286,0.8581367242\C,5.3299365594,1.4096388778,-1.
 2355073497\C,5.3769614353,0.5049805289,-0.1596128776\C,6.3403718934,-0
 .5998234324,0.0496936479\C,7.3471088961,-0.5271455062,-0.9603793045\C,
 7.4616643229,0.4351281818,-2.0160227983\C,6.3969626888,1.4169917788,-2
 .1931326641\C,6.4574034531,2.3378799318,-3.2862368834\C,7.5303163222,2
 .3218370369,-4.1925220324\C,8.5928749742,1.3539265619,-4.0205655258\C,
 8.5532056026,0.4585772217,-2.9687050628\N,7.6290571228,4.0427094147,-6
 .2162639927\C,7.5819852061,3.2672021855,-5.3014760981\H,4.5052940345,2
 .1276939212,-1.3585626083\H,8.1420842321,-1.2950544957,-0.9701630284\H
 ,5.6498969444,3.0730392381,-3.4129818928\H,9.4228450437,1.3472808411,-
 4.7390942764\H,9.3646329133,-0.2722988594,-2.8441123652\\Version=ES64L
 -G09RevD.01\State=1-A\HF=-562.518065\RMSD=8.943e-09\RMSF=1.562e-05\Dip
 ole=1.0631798,0.6979305,-1.8113244\Quadrupole=10.8243445,7.3018969,-18
 .1262414,-5.336338,17.210915,20.1681991\PG=C01 [X(C12H5N2)]\\@


 I do not feel obliged to believe that the same God who
 has endowed us with sense, reason, and intellect has
 intended us to forgo their use.
                   --Galileo Galilei
 Job cpu time:       0 days  0 hours  4 minutes 36.8 seconds.
 File lengths (MBytes):  RWF=      5 Int=      0 D2E=      0 Chk=      2 Scr=      1
 Normal termination of Gaussian 09 at Tue Jun 15 11:13:34 2021.
