 Entering Gaussian System, Link 0=/usr/local/apps//g09/g09
 Input=35.com
 Output=35.out
 Initial command:
 /usr/local/apps//g09/l1.exe "/tmp/bnp.472688.sequoia/Gau-26632.inp" -scrdir="/tmp/bnp.472688.sequoia/"
 Entering Link 1 = /usr/local/apps//g09/l1.exe PID=     26633.
  
 Copyright (c) 1988,1990,1992,1993,1995,1998,2003,2009,2013,
            Gaussian, Inc.  All Rights Reserved.
  
 This is part of the Gaussian(R) 09 program.  It is based on
 the Gaussian(R) 03 system (copyright 2003, Gaussian, Inc.),
 the Gaussian(R) 98 system (copyright 1998, Gaussian, Inc.),
 the Gaussian(R) 94 system (copyright 1995, Gaussian, Inc.),
 the Gaussian 92(TM) system (copyright 1992, Gaussian, Inc.),
 the Gaussian 90(TM) system (copyright 1990, Gaussian, Inc.),
 the Gaussian 88(TM) system (copyright 1988, Gaussian, Inc.),
 the Gaussian 86(TM) system (copyright 1986, Carnegie Mellon
 University), and the Gaussian 82(TM) system (copyright 1983,
 Carnegie Mellon University). Gaussian is a federally registered
 trademark of Gaussian, Inc.
  
 This software contains proprietary and confidential information,
 including trade secrets, belonging to Gaussian, Inc.
  
 This software is provided under written license and may be
 used, copied, transmitted, or stored only in accord with that
 written license.
  
 The following legend is applicable only to US Government
 contracts under FAR:
  
                    RESTRICTED RIGHTS LEGEND
  
 Use, reproduction and disclosure by the US Government is
 subject to restrictions as set forth in subparagraphs (a)
 and (c) of the Commercial Computer Software - Restricted
 Rights clause in FAR 52.227-19.
  
 Gaussian, Inc.
 340 Quinnipiac St., Bldg. 40, Wallingford CT 06492
  
  
 ---------------------------------------------------------------
 Warning -- This program may not be used in any manner that
 competes with the business of Gaussian, Inc. or will provide
 assistance to any competitor of Gaussian, Inc.  The licensee
 of this program is prohibited from giving any competitor of
 Gaussian, Inc. access to this program.  By using this program,
 the user acknowledges that Gaussian, Inc. is engaged in the
 business of creating and licensing software in the field of
 computational chemistry and represents and warrants to the
 licensee that it is not a competitor of Gaussian, Inc. and that
 it will not use this program in any manner prohibited above.
 ---------------------------------------------------------------
  

 Cite this work as:
 Gaussian 09, Revision D.01,
 M. J. Frisch, G. W. Trucks, H. B. Schlegel, G. E. Scuseria, 
 M. A. Robb, J. R. Cheeseman, G. Scalmani, V. Barone, B. Mennucci, 
 G. A. Petersson, H. Nakatsuji, M. Caricato, X. Li, H. P. Hratchian, 
 A. F. Izmaylov, J. Bloino, G. Zheng, J. L. Sonnenberg, M. Hada, 
 M. Ehara, K. Toyota, R. Fukuda, J. Hasegawa, M. Ishida, T. Nakajima, 
 Y. Honda, O. Kitao, H. Nakai, T. Vreven, J. A. Montgomery, Jr., 
 J. E. Peralta, F. Ogliaro, M. Bearpark, J. J. Heyd, E. Brothers, 
 K. N. Kudin, V. N. Staroverov, T. Keith, R. Kobayashi, J. Normand, 
 K. Raghavachari, A. Rendell, J. C. Burant, S. S. Iyengar, J. Tomasi, 
 M. Cossi, N. Rega, J. M. Millam, M. Klene, J. E. Knox, J. B. Cross, 
 V. Bakken, C. Adamo, J. Jaramillo, R. Gomperts, R. E. Stratmann, 
 O. Yazyev, A. J. Austin, R. Cammi, C. Pomelli, J. W. Ochterski, 
 R. L. Martin, K. Morokuma, V. G. Zakrzewski, G. A. Voth, 
 P. Salvador, J. J. Dannenberg, S. Dapprich, A. D. Daniels, 
 O. Farkas, J. B. Foresman, J. V. Ortiz, J. Cioslowski, 
 and D. J. Fox, Gaussian, Inc., Wallingford CT, 2013.
 
 ******************************************
 Gaussian 09:  ES64L-G09RevD.01 24-Apr-2013
                15-Jun-2021 
 ******************************************
 -------------------
 #N B3LYP/STO-3G OPT
 -------------------
 1/14=-1,18=20,19=15,26=3,38=1/1,3;
 2/9=110,12=2,17=6,18=5,40=1/2;
 3/6=3,11=2,16=1,25=1,30=1,71=1,74=-5/1,2,3;
 4//1;
 5/5=2,38=5/2;
 6/7=2,8=2,9=2,10=2,28=1/1;
 7//1,2,3,16;
 1/14=-1,18=20,19=15,26=3/3(2);
 2/9=110/2;
 99//99;
 2/9=110/2;
 3/6=3,11=2,16=1,25=1,30=1,71=1,74=-5/1,2,3;
 4/5=5,16=3,69=1/1;
 5/5=2,38=5/2;
 7//1,2,3,16;
 1/14=-1,18=20,19=15,26=3/3(-5);
 2/9=110/2;
 6/7=2,8=2,9=2,10=2,19=2,28=1/1;
 99/9=1/99;
 -----
 1Naph
 -----
 Symbolic Z-matrix:
 Charge = -1 Multiplicity = 1
 N                     1.08386   0.02447   0.04693 
 C                     2.24456   0.00685   0.04752 
 C                     3.68145  -0.00921   0.04817 
 C                     4.34999   1.2252    0.04813 
 C                     5.74177   1.27454   0.04811 
 C                     6.47534   0.09137   0.04903 
 C                     5.82662  -1.1484    0.04637 
 C                     4.41288  -1.22743   0.04947 
 C                     3.83001  -2.52008   0.04733 
 C                     4.61896  -3.67717   0.04775 
 C                     6.00823  -3.56899   0.04737 
 C                     6.59862  -2.31      0.04836 
 N                     7.53864  -5.65842   0.04725 
 C                     6.84992  -4.72383   0.0474 
 H                     3.78778   2.15732   0.04838 
 H                     6.256     2.23255   0.04805 
 H                     7.5637    0.14409   0.04772 
 H                     2.74669  -2.64226   0.04765 
 H                     4.13872  -4.65416   0.04727 
 

 GradGradGradGradGradGradGradGradGradGradGradGradGradGradGradGradGradGrad
 Berny optimization.
 Initialization pass.
                           ----------------------------
                           !    Initial Parameters    !
                           ! (Angstroms and Degrees)  !
 --------------------------                            --------------------------
 ! Name  Definition              Value          Derivative Info.                !
 --------------------------------------------------------------------------------
 ! R1    R(1,2)                  1.1608         estimate D2E/DX2                !
 ! R2    R(2,3)                  1.437          estimate D2E/DX2                !
 ! R3    R(3,4)                  1.4038         estimate D2E/DX2                !
 ! R4    R(3,8)                  1.4209         estimate D2E/DX2                !
 ! R5    R(4,5)                  1.3927         estimate D2E/DX2                !
 ! R6    R(4,15)                 1.0885         estimate D2E/DX2                !
 ! R7    R(5,6)                  1.3921         estimate D2E/DX2                !
 ! R8    R(5,16)                 1.0873         estimate D2E/DX2                !
 ! R9    R(6,7)                  1.3992         estimate D2E/DX2                !
 ! R10   R(6,17)                 1.0896         estimate D2E/DX2                !
 ! R11   R(7,8)                  1.416          estimate D2E/DX2                !
 ! R12   R(7,12)                 1.3947         estimate D2E/DX2                !
 ! R13   R(8,9)                  1.418          estimate D2E/DX2                !
 ! R14   R(9,10)                 1.4005         estimate D2E/DX2                !
 ! R15   R(9,18)                 1.0902         estimate D2E/DX2                !
 ! R16   R(10,11)                1.3935         estimate D2E/DX2                !
 ! R17   R(10,19)                1.0886         estimate D2E/DX2                !
 ! R18   R(11,12)                1.3905         estimate D2E/DX2                !
 ! R19   R(11,14)                1.429          estimate D2E/DX2                !
 ! R20   R(13,14)                1.1609         estimate D2E/DX2                !
 ! A1    A(2,3,4)              117.799          estimate D2E/DX2                !
 ! A2    A(2,3,8)              121.6213         estimate D2E/DX2                !
 ! A3    A(4,3,8)              120.5796         estimate D2E/DX2                !
 ! A4    A(3,4,5)              120.4697         estimate D2E/DX2                !
 ! A5    A(3,4,15)             120.4643         estimate D2E/DX2                !
 ! A6    A(5,4,15)             119.066          estimate D2E/DX2                !
 ! A7    A(4,5,6)              119.7687         estimate D2E/DX2                !
 ! A8    A(4,5,16)             120.2559         estimate D2E/DX2                !
 ! A9    A(6,5,16)             119.9754         estimate D2E/DX2                !
 ! A10   A(5,6,7)              120.5796         estimate D2E/DX2                !
 ! A11   A(5,6,17)             119.0258         estimate D2E/DX2                !
 ! A12   A(7,6,17)             120.3942         estimate D2E/DX2                !
 ! A13   A(6,7,8)              120.8203         estimate D2E/DX2                !
 ! A14   A(6,7,12)             118.7705         estimate D2E/DX2                !
 ! A15   A(8,7,12)             120.4081         estimate D2E/DX2                !
 ! A16   A(3,8,7)              117.7812         estimate D2E/DX2                !
 ! A17   A(3,8,9)              124.7477         estimate D2E/DX2                !
 ! A18   A(7,8,9)              117.4704         estimate D2E/DX2                !
 ! A19   A(8,9,10)             121.4411         estimate D2E/DX2                !
 ! A20   A(8,9,18)             120.7059         estimate D2E/DX2                !
 ! A21   A(10,9,18)            117.8529         estimate D2E/DX2                !
 ! A22   A(9,10,11)            119.8352         estimate D2E/DX2                !
 ! A23   A(9,10,19)            119.5358         estimate D2E/DX2                !
 ! A24   A(11,10,19)           120.629          estimate D2E/DX2                !
 ! A25   A(10,11,12)           119.5762         estimate D2E/DX2                !
 ! A26   A(10,11,14)           121.6334         estimate D2E/DX2                !
 ! A27   A(12,11,14)           118.7903         estimate D2E/DX2                !
 ! A28   A(7,12,11)            121.2681         estimate D2E/DX2                !
 ! A29   L(1,2,3,18,-1)        180.2293         estimate D2E/DX2                !
 ! A30   L(11,14,13,19,-1)     180.3014         estimate D2E/DX2                !
 ! A31   L(1,2,3,18,-2)        179.9967         estimate D2E/DX2                !
 ! A32   L(11,14,13,19,-2)     179.9891         estimate D2E/DX2                !
 ! D1    D(2,3,4,5)           -179.9698         estimate D2E/DX2                !
 ! D2    D(2,3,4,15)             0.0464         estimate D2E/DX2                !
 ! D3    D(8,3,4,5)              0.0599         estimate D2E/DX2                !
 ! D4    D(8,3,4,15)          -179.9239         estimate D2E/DX2                !
 ! D5    D(2,3,8,7)            179.8324         estimate D2E/DX2                !
 ! D6    D(2,3,8,9)              0.1434         estimate D2E/DX2                !
 ! D7    D(4,3,8,7)             -0.1985         estimate D2E/DX2                !
 ! D8    D(4,3,8,9)           -179.8875         estimate D2E/DX2                !
 ! D9    D(3,4,5,6)             -0.0427         estimate D2E/DX2                !
 ! D10   D(3,4,5,16)           179.9982         estimate D2E/DX2                !
 ! D11   D(15,4,5,6)           179.9413         estimate D2E/DX2                !
 ! D12   D(15,4,5,16)           -0.0178         estimate D2E/DX2                !
 ! D13   D(4,5,6,7)              0.1715         estimate D2E/DX2                !
 ! D14   D(4,5,6,17)           179.9228         estimate D2E/DX2                !
 ! D15   D(16,5,6,7)          -179.8693         estimate D2E/DX2                !
 ! D16   D(16,5,6,17)           -0.118          estimate D2E/DX2                !
 ! D17   D(5,6,7,8)             -0.3194         estimate D2E/DX2                !
 ! D18   D(5,6,7,12)          -179.9553         estimate D2E/DX2                !
 ! D19   D(17,6,7,8)           179.9327         estimate D2E/DX2                !
 ! D20   D(17,6,7,12)            0.2968         estimate D2E/DX2                !
 ! D21   D(6,7,8,3)              0.327          estimate D2E/DX2                !
 ! D22   D(6,7,8,9)           -179.961          estimate D2E/DX2                !
 ! D23   D(12,7,8,3)           179.9569         estimate D2E/DX2                !
 ! D24   D(12,7,8,9)            -0.3311         estimate D2E/DX2                !
 ! D25   D(6,7,12,11)          179.9282         estimate D2E/DX2                !
 ! D26   D(8,7,12,11)            0.2908         estimate D2E/DX2                !
 ! D27   D(3,8,9,10)           179.9492         estimate D2E/DX2                !
 ! D28   D(3,8,9,18)            -0.1947         estimate D2E/DX2                !
 ! D29   D(7,8,9,10)             0.2593         estimate D2E/DX2                !
 ! D30   D(7,8,9,18)          -179.8846         estimate D2E/DX2                !
 ! D31   D(8,9,10,11)           -0.1397         estimate D2E/DX2                !
 ! D32   D(8,9,10,19)          179.9269         estimate D2E/DX2                !
 ! D33   D(18,9,10,11)        -179.9998         estimate D2E/DX2                !
 ! D34   D(18,9,10,19)           0.0669         estimate D2E/DX2                !
 ! D35   D(9,10,11,12)           0.0845         estimate D2E/DX2                !
 ! D36   D(9,10,11,14)        -179.9823         estimate D2E/DX2                !
 ! D37   D(19,10,11,12)       -179.9828         estimate D2E/DX2                !
 ! D38   D(19,10,11,14)         -0.0496         estimate D2E/DX2                !
 ! D39   D(10,11,12,7)          -0.1615         estimate D2E/DX2                !
 ! D40   D(14,11,12,7)         179.9034         estimate D2E/DX2                !
 --------------------------------------------------------------------------------
 Trust Radius=3.00D-01 FncErr=1.00D-07 GrdErr=1.00D-06
 Number of steps in this run=    102 maximum allowed number of steps=    114.
 GradGradGradGradGradGradGradGradGradGradGradGradGradGradGradGradGradGrad

                          Input orientation:                          
 ---------------------------------------------------------------------
 Center     Atomic      Atomic             Coordinates (Angstroms)
 Number     Number       Type             X           Y           Z
 ---------------------------------------------------------------------
      1          7           0        1.083860    0.024470    0.046930
      2          6           0        2.244560    0.006850    0.047520
      3          6           0        3.681450   -0.009210    0.048170
      4          6           0        4.349990    1.225200    0.048130
      5          6           0        5.741770    1.274540    0.048110
      6          6           0        6.475340    0.091370    0.049030
      7          6           0        5.826620   -1.148400    0.046370
      8          6           0        4.412880   -1.227430    0.049470
      9          6           0        3.830010   -2.520080    0.047330
     10          6           0        4.618960   -3.677170    0.047750
     11          6           0        6.008230   -3.568990    0.047370
     12          6           0        6.598620   -2.310000    0.048360
     13          7           0        7.538640   -5.658420    0.047250
     14          6           0        6.849920   -4.723830    0.047400
     15          1           0        3.787780    2.157320    0.048380
     16          1           0        6.256000    2.232550    0.048050
     17          1           0        7.563700    0.144090    0.047720
     18          1           0        2.746690   -2.642260    0.047650
     19          1           0        4.138720   -4.654160    0.047270
 ---------------------------------------------------------------------
                    Distance matrix (angstroms):
                    1          2          3          4          5
     1  N    0.000000
     2  C    1.160834   0.000000
     3  C    2.597809   1.436980   0.000000
     4  C    3.479850   2.432532   1.403821   0.000000
     5  C    4.822738   3.719881   2.427536   1.392654   0.000000
     6  C    5.391895   4.231624   2.795700   2.408876   1.392127
     7  C    4.885632   3.763743   2.428891   2.795428   2.424426
     8  C    3.556632   2.495008   1.420933   2.453437   2.832985
     9  C    3.743805   2.983124   2.515261   3.781204   4.248996
    10  C    5.118503   4.382896   3.785876   4.909743   5.077414
    11  C    6.096095   5.191517   4.252757   5.072871   4.850854
    12  C    5.988517   4.932102   3.715308   4.189747   3.685528
    13  N    8.599966   7.753874   6.840430   7.586285   7.162030
    14  C    7.469525   6.602172   5.680391   6.452953   6.099872
    15  H    3.443869   2.646894   2.169138   1.088544   2.144150
    16  H    5.623758   4.587526   3.413766   2.155836   1.087297
    17  H    6.480944   5.320910   3.885276   3.390683   2.144142
    18  H    3.142682   2.696279   2.794052   4.186624   4.930702
    19  H    5.587642   5.031188   4.667404   5.883155   6.141600
                    6          7          8          9         10
     6  C    0.000000
     7  C    1.399241   0.000000
     8  C    2.448055   1.415951   0.000000
     9  C    3.717182   2.422387   1.417987   0.000000
    10  C    4.200957   2.802342   2.458393   1.400464   0.000000
    11  C    3.690045   2.427393   2.833381   2.417613   1.393476
    12  C    2.404532   1.394741   2.439143   2.776569   2.405869
    13  N    5.847281   4.824033   5.422550   4.858304   3.528439
    14  C    4.829748   3.718984   4.261922   3.738498   2.464281
    15  H    3.389857   3.883897   3.441988   4.677591   5.893398
    16  H    2.152385   3.408107   3.920275   5.336002   6.132266
    17  H    1.089637   2.165174   3.436384   4.586746   4.824264
    18  H    4.623372   3.423096   2.185849   1.090188   2.139260
    19  H    5.289598   3.890933   3.437680   2.156293   1.088641
                   11         12         13         14         15
    11  C    0.000000
    12  C    1.390546   0.000000
    13  N    2.589956   3.477866   0.000000
    14  C    1.429020   2.426876   1.160945   0.000000
    15  H    6.141744   5.278046   8.669184   7.531728   0.000000
    16  H    5.806828   4.555453   7.994534   6.981688   2.469366
    17  H    4.025724   2.637032   5.802564   4.919972   4.279097
    18  H    3.390645   3.866234   5.662156   4.601025   4.911195
    19  H    2.161634   3.397969   3.545137   2.712095   6.820515
                   16         17         18         19
    16  H    0.000000
    17  H    2.464091   0.000000
    18  H    6.006582   5.564830   0.000000
    19  H    7.204835   5.895226   2.446526   0.000000
 Stoichiometry    C12H5N2(1-)
 Framework group  C1[X(C12H5N2)]
 Deg. of freedom    51
 Full point group                 C1      NOp   1
 Largest Abelian subgroup         C1      NOp   1
 Largest concise Abelian subgroup C1      NOp   1
                         Standard orientation:                         
 ---------------------------------------------------------------------
 Center     Atomic      Atomic             Coordinates (Angstroms)
 Number     Number       Type             X           Y           Z
 ---------------------------------------------------------------------
      1          7           0        3.457163   -2.312441    0.000553
      2          6           0        2.795692   -1.358507    0.000131
      3          6           0        1.981599   -0.174377   -0.000311
      4          6           0        2.633988    1.068645    0.000033
      5          6           0        1.899337    2.251765    0.000265
      6          6           0        0.508119    2.201501   -0.000744
      7          6           0       -0.159766    0.971949    0.001614
      8          6           0        0.562470   -0.245951   -0.001707
      9          6           0       -0.186020   -1.450295    0.000133
     10          6           0       -1.586446   -1.440043   -0.000364
     11          6           0       -2.270842   -0.226216    0.000238
     12          6           0       -1.554491    0.965614   -0.000456
     13          7           0       -4.858614   -0.119893    0.000235
     14          6           0       -3.698791   -0.170918    0.000139
     15          1           0        3.721258    1.121287   -0.000145
     16          1           0        2.408220    3.212626    0.000560
     17          1           0       -0.054634    3.134569    0.000734
     18          1           0        0.316250   -2.417888   -0.000367
     19          1           0       -2.130031   -2.383259   -0.000117
 ---------------------------------------------------------------------
 Rotational constants (GHZ):      1.4976604      0.4666612      0.3557972
 Standard basis: STO-3G (5D, 7F)
 There are    75 symmetry adapted cartesian basis functions of A   symmetry.
 There are    75 symmetry adapted basis functions of A   symmetry.
    75 basis functions,   225 primitive gaussians,    75 cartesian basis functions
    46 alpha electrons       46 beta electrons
       nuclear repulsion energy       704.8544036997 Hartrees.
 NAtoms=   19 NActive=   19 NUniq=   19 SFac= 1.00D+00 NAtFMM=   60 NAOKFM=F Big=F
 Integral buffers will be    131072 words long.
 Raffenetti 2 integral format.
 Two-electron integral symmetry is turned on.
 One-electron integrals computed using PRISM.
 NBasis=    75 RedAO= T EigKep=  1.55D-01  NBF=    75
 NBsUse=    75 1.00D-06 EigRej= -1.00D+00 NBFU=    75
 ExpMin= 1.69D-01 ExpMax= 9.91D+01 ExpMxC= 9.91D+01 IAcc=1 IRadAn=         1 AccDes= 0.00D+00
 Harris functional with IExCor=  402 and IRadAn=       1 diagonalized for initial guess.
 HarFok:  IExCor=  402 AccDes= 0.00D+00 IRadAn=         1 IDoV= 1 UseB2=F ITyADJ=14
 ICtDFT=  3500011 ScaDFX=  1.000000  1.000000  1.000000  1.000000
 FoFCou: FMM=F IPFlag=           0 FMFlag=      100000 FMFlg1=           0
         NFxFlg=           0 DoJE=T BraDBF=F KetDBF=T FulRan=T
         wScrn=  0.000000 ICntrl=     500 IOpCl=  0 I1Cent=   200000004 NGrid=           0
         NMat0=    1 NMatS0=      1 NMatT0=    0 NMatD0=    1 NMtDS0=    0 NMtDT0=    0
 Petite list used in FoFCou.
 Keep R1 ints in memory in canonical form, NReq=4993994.
 Requested convergence on RMS density matrix=1.00D-08 within 128 cycles.
 Requested convergence on MAX density matrix=1.00D-06.
 Requested convergence on             energy=1.00D-06.
 No special actions if energy rises.
 Integral accuracy reduced to 1.0D-05 until final iterations.
 EnCoef did     4 forward-backward iterations
 EnCoef did     5 forward-backward iterations
 EnCoef did   100 forward-backward iterations
 Initial convergence to 1.0D-05 achieved.  Increase integral accuracy.
 SCF Done:  E(RB3LYP) =  -562.486155619     A.U. after   36 cycles
            NFock= 36  Conv=0.44D-08     -V/T= 2.0128

 **********************************************************************

            Population analysis using the SCF density.

 **********************************************************************

 Orbital symmetries:
       Occupied  (A) (A) (A) (A) (A) (A) (A) (A) (A) (A) (A) (A)
                 (A) (A) (A) (A) (A) (A) (A) (A) (A) (A) (A) (A)
                 (A) (A) (A) (A) (A) (A) (A) (A) (A) (A) (A) (A)
                 (A) (A) (A) (A) (A) (A) (A) (A) (A) (A)
       Virtual   (A) (A) (A) (A) (A) (A) (A) (A) (A) (A) (A) (A)
                 (A) (A) (A) (A) (A) (A) (A) (A) (A) (A) (A) (A)
                 (A) (A) (A) (A) (A)
 The electronic state is 1-A.
 Alpha  occ. eigenvalues --  -13.98889 -13.93686  -9.90004  -9.89587  -9.88595
 Alpha  occ. eigenvalues --   -9.86867  -9.86764  -9.86673  -9.84893  -9.84747
 Alpha  occ. eigenvalues --   -9.83511  -9.83043  -9.82789  -9.65877  -0.74203
 Alpha  occ. eigenvalues --   -0.69825  -0.68321  -0.62529  -0.58873  -0.55714
 Alpha  occ. eigenvalues --   -0.51280  -0.45896  -0.42944  -0.40402  -0.35533
 Alpha  occ. eigenvalues --   -0.32004  -0.30906  -0.28401  -0.26425  -0.22211
 Alpha  occ. eigenvalues --   -0.21584  -0.21532  -0.20715  -0.17003  -0.16778
 Alpha  occ. eigenvalues --   -0.15627  -0.14913  -0.14435  -0.13471  -0.11020
 Alpha  occ. eigenvalues --   -0.10822  -0.09287  -0.06890  -0.03965   0.02019
 Alpha  occ. eigenvalues --    0.14144
 Alpha virt. eigenvalues --    0.17205   0.21850   0.27583   0.27932   0.30252
 Alpha virt. eigenvalues --    0.32270   0.34749   0.40913   0.45700   0.49695
 Alpha virt. eigenvalues --    0.50818   0.51445   0.53841   0.58363   0.60269
 Alpha virt. eigenvalues --    0.60715   0.64899   0.65499   0.70570   0.72665
 Alpha virt. eigenvalues --    0.74002   0.78364   0.82089   0.85726   0.88625
 Alpha virt. eigenvalues --    0.98576   0.99974   1.14436   1.19564
          Condensed to atoms (all electrons):
               1          2          3          4          5          6
     1  N    6.582191   0.685454  -0.011299  -0.000197  -0.000001   0.000000
     2  C    0.685454   4.898989   0.424742  -0.034450   0.001054   0.000003
     3  C   -0.011299   0.424742   4.778094   0.506331  -0.030383  -0.011004
     4  C   -0.000197  -0.034450   0.506331   4.818883   0.497020  -0.029991
     5  C   -0.000001   0.001054  -0.030383   0.497020   4.838517   0.507489
     6  C    0.000000   0.000003  -0.011004  -0.029991   0.507489   4.827166
     7  C   -0.000002   0.000950  -0.028090  -0.011274  -0.030389   0.484159
     8  C   -0.000050  -0.028066   0.460954  -0.029049  -0.008822  -0.036069
     9  C   -0.000079  -0.003858  -0.029001   0.000751   0.000040   0.000963
    10  C    0.000000   0.000013   0.000801  -0.000007   0.000001  -0.000019
    11  C    0.000000   0.000000   0.000050   0.000001  -0.000018   0.001476
    12  C    0.000000  -0.000009   0.001143   0.000035   0.001147  -0.043677
    13  N    0.000000   0.000000   0.000000   0.000000   0.000000   0.000000
    14  C    0.000000   0.000000   0.000000   0.000000   0.000000  -0.000002
    15  H    0.000050  -0.003966  -0.025077   0.389970  -0.026625   0.001540
    16  H    0.000000  -0.000022   0.001449  -0.026553   0.390626  -0.026129
    17  H    0.000000   0.000001   0.000028   0.001547  -0.027546   0.388669
    18  H   -0.000118   0.001187  -0.003424   0.000011  -0.000001  -0.000023
    19  H    0.000000   0.000000  -0.000012   0.000000   0.000000   0.000002
               7          8          9         10         11         12
     1  N   -0.000002  -0.000050  -0.000079   0.000000   0.000000   0.000000
     2  C    0.000950  -0.028066  -0.003858   0.000013   0.000000  -0.000009
     3  C   -0.028090   0.460954  -0.029001   0.000801   0.000050   0.001143
     4  C   -0.011274  -0.029049   0.000751  -0.000007   0.000001   0.000035
     5  C   -0.030389  -0.008822   0.000040   0.000001  -0.000018   0.001147
     6  C    0.484159  -0.036069   0.000963  -0.000019   0.001476  -0.043677
     7  C    4.824271   0.448671  -0.033263  -0.012190  -0.029180   0.454510
     8  C    0.448671   4.805978   0.486071  -0.025318  -0.011430  -0.030127
     9  C   -0.033263   0.486071   4.863849   0.520486  -0.033193  -0.013391
    10  C   -0.012190  -0.025318   0.520486   4.843759   0.472293  -0.030457
    11  C   -0.029180  -0.011430  -0.033193   0.472293   4.821748   0.480508
    12  C    0.454510  -0.030127  -0.013391  -0.030457   0.480508   5.423084
    13  N   -0.000002   0.000000  -0.000001   0.000026  -0.011608  -0.000118
    14  C    0.001419  -0.000023   0.000957  -0.039579   0.421305  -0.037725
    15  H    0.000042   0.001296  -0.000017   0.000000   0.000000   0.000001
    16  H    0.001485   0.000004   0.000001   0.000000   0.000000  -0.000028
    17  H   -0.024100   0.001511  -0.000018   0.000000   0.000040  -0.002312
    18  H    0.001349  -0.025454   0.389368  -0.027617   0.001448   0.000047
    19  H    0.000097   0.001344  -0.026815   0.381084  -0.025307   0.001674
              13         14         15         16         17         18
     1  N    0.000000   0.000000   0.000050   0.000000   0.000000  -0.000118
     2  C    0.000000   0.000000  -0.003966  -0.000022   0.000001   0.001187
     3  C    0.000000   0.000000  -0.025077   0.001449   0.000028  -0.003424
     4  C    0.000000   0.000000   0.389970  -0.026553   0.001547   0.000011
     5  C    0.000000   0.000000  -0.026625   0.390626  -0.027546  -0.000001
     6  C    0.000000  -0.000002   0.001540  -0.026129   0.388669  -0.000023
     7  C   -0.000002   0.001419   0.000042   0.001485  -0.024100   0.001349
     8  C    0.000000  -0.000023   0.001296   0.000004   0.001511  -0.025454
     9  C   -0.000001   0.000957  -0.000017   0.000001  -0.000018   0.389368
    10  C    0.000026  -0.039579   0.000000   0.000000   0.000000  -0.027617
    11  C   -0.011608   0.421305   0.000000   0.000000   0.000040   0.001448
    12  C   -0.000118  -0.037725   0.000001  -0.000028  -0.002312   0.000047
    13  N    6.614447   0.686543   0.000000   0.000000   0.000000   0.000000
    14  C    0.686543   4.914673   0.000000   0.000000  -0.000003  -0.000022
    15  H    0.000000   0.000000   0.603746  -0.004000  -0.000040  -0.000001
    16  H    0.000000   0.000000  -0.004000   0.614967  -0.003986   0.000000
    17  H    0.000000  -0.000003  -0.000040  -0.003986   0.592436   0.000000
    18  H    0.000000  -0.000022  -0.000001   0.000000   0.000000   0.618869
    19  H    0.000043  -0.002474   0.000000   0.000000   0.000000  -0.004244
              19
     1  N    0.000000
     2  C    0.000000
     3  C   -0.000012
     4  C    0.000000
     5  C    0.000000
     6  C    0.000002
     7  C    0.000097
     8  C    0.001344
     9  C   -0.026815
    10  C    0.381084
    11  C   -0.025307
    12  C    0.001674
    13  N    0.000043
    14  C   -0.002474
    15  H    0.000000
    16  H    0.000000
    17  H    0.000000
    18  H   -0.004244
    19  H    0.626458
 Mulliken charges:
               1
     1  N   -0.255951
     2  C    0.057978
     3  C   -0.035302
     4  C   -0.083029
     5  C   -0.112111
     6  C   -0.064553
     7  C   -0.048463
     8  C   -0.011421
     9  C   -0.122852
    10  C   -0.083275
    11  C   -0.088132
    12  C   -0.204308
    13  N   -0.289330
    14  C    0.054931
    15  H    0.063082
    16  H    0.052184
    17  H    0.073773
    18  H    0.048626
    19  H    0.048152
 Sum of Mulliken charges =  -1.00000
 Mulliken charges with hydrogens summed into heavy atoms:
               1
     1  N   -0.255951
     2  C    0.057978
     3  C   -0.035302
     4  C   -0.019947
     5  C   -0.059927
     6  C    0.009220
     7  C   -0.048463
     8  C   -0.011421
     9  C   -0.074225
    10  C   -0.035123
    11  C   -0.088132
    12  C   -0.204308
    13  N   -0.289330
    14  C    0.054931
 Electronic spatial extent (au):  <R**2>=           2851.9600
 Charge=             -1.0000 electrons
 Dipole moment (field-independent basis, Debye):
    X=              5.3468    Y=              0.8409    Z=              0.1007  Tot=              5.4135
 Quadrupole moment (field-independent basis, Debye-Ang):
   XX=           -129.9734   YY=            -84.5325   ZZ=            -73.8360
   XY=             14.4764   XZ=             -0.1263   YZ=              0.1928
 Traceless Quadrupole moment (field-independent basis, Debye-Ang):
   XX=            -33.8594   YY=             11.5815   ZZ=             22.2779
   XY=             14.4764   XZ=             -0.1263   YZ=              0.1928
 Octapole moment (field-independent basis, Debye-Ang**2):
  XXX=            150.6790  YYY=             15.3004  ZZZ=              0.0619  XYY=            -27.0233
  XXY=             36.6283  XXZ=              0.1779  XZZ=             -1.8136  YZZ=             -2.2446
  YYZ=              0.3105  XYZ=             -0.2494
 Hexadecapole moment (field-independent basis, Debye-Ang**3):
 XXXX=          -3856.7380 YYYY=           -966.1088 ZZZZ=            -57.9997 XXXY=            160.2501
 XXXZ=             -0.7174 YYYX=             91.6285 YYYZ=              0.4407 ZZZX=             -0.0759
 ZZZY=              0.1011 XXYY=           -717.4570 XXZZ=           -446.0330 YYZZ=           -169.4486
 XXYZ=              0.5656 YYXZ=             -0.3198 ZZXY=             -8.0020
 N-N= 7.048544036997D+02 E-N=-2.732276281956D+03  KE= 5.553940434942D+02
 Calling FoFJK, ICntrl=      2127 FMM=F ISym2X=0 I1Cent= 0 IOpClX= 0 NMat=1 NMatS=1 NMatT=0.
 ***** Axes restored to original set *****
 -------------------------------------------------------------------
 Center     Atomic                   Forces (Hartrees/Bohr)
 Number     Number              X              Y              Z
 -------------------------------------------------------------------
      1        7          -0.104036464    0.001448182    0.000846472
      2        6           0.083011242   -0.002491562   -0.002675126
      3        6          -0.008707302    0.020722030    0.000353518
      4        6          -0.011385825    0.000454011    0.000549196
      5        6           0.018744577    0.003778019   -0.000929452
      6        6           0.001190267    0.032735118    0.000432860
      7        6          -0.004477313   -0.020119041   -0.001070362
      8        6          -0.021459992   -0.004095260    0.002841235
      9        6          -0.009400271   -0.021842524    0.000632584
     10        6          -0.036356381    0.001961127   -0.002017780
     11        6          -0.007474971    0.034774403   -0.004598323
     12        6           0.096042110   -0.020377059    0.003867273
     13        7           0.061499317   -0.081351928   -0.000220589
     14        6          -0.045038701    0.050326302    0.000826907
     15        1          -0.006949791    0.005028399    0.000037932
     16        1           0.002063357    0.008096400   -0.000201067
     17        1           0.007604277   -0.004509477   -0.000377050
     18        1          -0.005666706    0.004015837    0.000255888
     19        1          -0.009201430   -0.008552978    0.001445883
 -------------------------------------------------------------------
 Cartesian Forces:  Max     0.104036464 RMS     0.029303455

 GradGradGradGradGradGradGradGradGradGradGradGradGradGradGradGradGradGrad
 Berny optimization.
 FormGI is forming the generalized inverse of G from B-inverse, IUseBI=4.
 Internal  Forces:  Max     0.104045698 RMS     0.021299650
 Search for a local minimum.
 Step number   1 out of a maximum of  102
 All quantities printed in internal units (Hartrees-Bohrs-Radians)
 Mixed Optimization -- RFO/linear search
 Second derivative matrix not updated -- first step.
 ITU=  0
     Eigenvalues ---    0.01600   0.01600   0.01872   0.01886   0.01925
     Eigenvalues ---    0.01953   0.01987   0.02056   0.02080   0.02107
     Eigenvalues ---    0.02127   0.02143   0.02161   0.02175   0.02189
     Eigenvalues ---    0.02189   0.04854   0.04854   0.16000   0.16000
     Eigenvalues ---    0.16000   0.16000   0.16000   0.22086   0.22515
     Eigenvalues ---    0.23518   0.24487   0.24917   0.25000   0.25000
     Eigenvalues ---    0.25000   0.34791   0.34855   0.34970   0.34981
     Eigenvalues ---    0.35127   0.38341   0.40003   0.40392   0.41130
     Eigenvalues ---    0.41164   0.43120   0.43935   0.45401   0.45486
     Eigenvalues ---    0.45747   0.46067   0.46695   0.46898   1.27177
     Eigenvalues ---    1.27250
 RFO step:  Lambda=-6.28526873D-02 EMin= 1.59958262D-02
 Linear search not attempted -- first point.
 Maximum step size (   0.300) exceeded in Quadratic search.
    -- Step size scaled by   0.847
 Iteration  1 RMS(Cart)=  0.05493932 RMS(Int)=  0.00121590
 Iteration  2 RMS(Cart)=  0.00234868 RMS(Int)=  0.00036649
 Iteration  3 RMS(Cart)=  0.00000115 RMS(Int)=  0.00036648
 Iteration  4 RMS(Cart)=  0.00000000 RMS(Int)=  0.00036648
 Variable       Old X    -DE/DX   Delta X   Delta X   Delta X     New X
                                 (Linear)    (Quad)   (Total)
    R1        2.19366   0.10405   0.00000   0.06600   0.06600   2.25966
    R2        2.71550   0.02101   0.00000   0.03846   0.03846   2.75395
    R3        2.65284   0.00773   0.00000   0.01125   0.01102   2.66385
    R4        2.68517   0.03204   0.00000   0.05640   0.05631   2.74148
    R5        2.63174   0.02613   0.00000   0.03964   0.03949   2.67123
    R6        2.05705   0.00790   0.00000   0.01621   0.01621   2.07326
    R7        2.63074   0.01372   0.00000   0.02129   0.02137   2.65211
    R8        2.05469   0.00811   0.00000   0.01659   0.01659   2.07128
    R9        2.64418   0.03795   0.00000   0.06326   0.06349   2.70767
   R10        2.05912   0.00738   0.00000   0.01519   0.01519   2.07431
   R11        2.67576   0.05231   0.00000   0.09322   0.09321   2.76897
   R12        2.63568   0.05875   0.00000   0.09718   0.09763   2.73331
   R13        2.67961   0.00998   0.00000   0.01529   0.01464   2.69424
   R14        2.64649  -0.00637   0.00000  -0.01336  -0.01382   2.63267
   R15        2.06016   0.00518   0.00000   0.01069   0.01069   2.07084
   R16        2.63329   0.05206   0.00000   0.08207   0.08225   2.71554
   R17        2.05723   0.01173   0.00000   0.02409   0.02409   2.08133
   R18        2.62775   0.03057   0.00000   0.05015   0.05079   2.67854
   R19        2.70046   0.03477   0.00000   0.06212   0.06212   2.76257
   R20        2.19387   0.10197   0.00000   0.06473   0.06473   2.25859
    A1        2.05598   0.00245   0.00000   0.00746   0.00765   2.06363
    A2        2.12269  -0.00131   0.00000  -0.00270  -0.00251   2.12018
    A3        2.10451  -0.00114   0.00000  -0.00476  -0.00516   2.09936
    A4        2.10259   0.00368   0.00000   0.00431   0.00385   2.10645
    A5        2.10250  -0.00529   0.00000  -0.01526  -0.01504   2.08746
    A6        2.07809   0.00161   0.00000   0.01096   0.01118   2.08927
    A7        2.09036   0.00327   0.00000   0.00483   0.00470   2.09506
    A8        2.09886  -0.00370   0.00000  -0.01026  -0.01020   2.08866
    A9        2.09397   0.00043   0.00000   0.00544   0.00550   2.09947
   A10        2.10451   0.00907   0.00000   0.02880   0.02907   2.13358
   A11        2.07739   0.00048   0.00000   0.00466   0.00452   2.08191
   A12        2.10127  -0.00955   0.00000  -0.03348  -0.03362   2.06766
   A13        2.10871  -0.02161   0.00000  -0.05621  -0.05598   2.05273
   A14        2.07294   0.00204   0.00000  -0.00104  -0.00134   2.07159
   A15        2.10152   0.01957   0.00000   0.05727   0.05734   2.15886
   A16        2.05567   0.00672   0.00000   0.02302   0.02350   2.07917
   A17        2.17726  -0.01035   0.00000  -0.02987  -0.02941   2.14785
   A18        2.05025   0.00363   0.00000   0.00682   0.00585   2.05609
   A19        2.11955  -0.00504   0.00000  -0.02354  -0.02479   2.09475
   A20        2.10671  -0.00225   0.00000  -0.00635  -0.00572   2.10099
   A21        2.05692   0.00729   0.00000   0.02989   0.03052   2.08744
   A22        2.09152   0.00760   0.00000   0.01550   0.01508   2.10660
   A23        2.08629  -0.00842   0.00000  -0.02528  -0.02509   2.06121
   A24        2.10537   0.00081   0.00000   0.00979   0.00999   2.11536
   A25        2.08700   0.02534   0.00000   0.07000   0.07073   2.15772
   A26        2.12290  -0.01802   0.00000  -0.04949  -0.04991   2.07300
   A27        2.07328  -0.00732   0.00000  -0.02052  -0.02095   2.05233
   A28        2.11653  -0.05110   0.00000  -0.12607  -0.12433   1.99220
   A29        3.14560  -0.00029   0.00000  -0.00307  -0.00307   3.14253
   A30        3.14685   0.00273   0.00000   0.02079   0.02079   3.16764
   A31        3.14154   0.00193   0.00000   0.02076   0.02076   3.16230
   A32        3.14140  -0.00036   0.00000  -0.00274  -0.00274   3.13867
    D1       -3.14107   0.00090   0.00000   0.00942   0.00944  -3.13163
    D2        0.00081   0.00051   0.00000   0.00534   0.00539   0.00620
    D3        0.00105   0.00021   0.00000   0.00222   0.00220   0.00325
    D4       -3.14026  -0.00018   0.00000  -0.00186  -0.00185   3.14107
    D5        3.13867  -0.00095   0.00000  -0.00974  -0.00976   3.12890
    D6        0.00250  -0.00021   0.00000  -0.00208  -0.00198   0.00052
    D7       -0.00346  -0.00023   0.00000  -0.00226  -0.00228  -0.00575
    D8       -3.13963   0.00051   0.00000   0.00540   0.00550  -3.13413
    D9       -0.00074  -0.00020   0.00000  -0.00206  -0.00207  -0.00282
   D10        3.14156  -0.00030   0.00000  -0.00315  -0.00314   3.13842
   D11        3.14057   0.00019   0.00000   0.00195   0.00198  -3.14064
   D12       -0.00031   0.00009   0.00000   0.00086   0.00091   0.00060
   D13        0.00299   0.00023   0.00000   0.00205   0.00211   0.00511
   D14        3.14025  -0.00028   0.00000  -0.00295  -0.00292   3.13732
   D15       -3.13931   0.00033   0.00000   0.00313   0.00318  -3.13613
   D16       -0.00206  -0.00018   0.00000  -0.00187  -0.00186  -0.00392
   D17       -0.00557  -0.00016   0.00000  -0.00191  -0.00192  -0.00750
   D18       -3.14081  -0.00064   0.00000  -0.00645  -0.00625   3.13612
   D19        3.14042   0.00033   0.00000   0.00307   0.00298  -3.13979
   D20        0.00518  -0.00015   0.00000  -0.00147  -0.00135   0.00383
   D21        0.00571   0.00016   0.00000   0.00197   0.00196   0.00767
   D22       -3.14091  -0.00057   0.00000  -0.00524  -0.00552   3.13675
   D23        3.14084   0.00058   0.00000   0.00636   0.00629  -3.13606
   D24       -0.00578  -0.00015   0.00000  -0.00085  -0.00120  -0.00698
   D25        3.14034   0.00154   0.00000   0.01642   0.01622  -3.12663
   D26        0.00508   0.00122   0.00000   0.01232   0.01205   0.01712
   D27        3.14071  -0.00151   0.00000  -0.01516  -0.01534   3.12536
   D28       -0.00340  -0.00101   0.00000  -0.01042  -0.01033  -0.01373
   D29        0.00453  -0.00077   0.00000  -0.00757  -0.00771  -0.00319
   D30       -3.13958  -0.00028   0.00000  -0.00283  -0.00270   3.14091
   D31       -0.00244   0.00041   0.00000   0.00405   0.00443   0.00199
   D32        3.14032  -0.00033   0.00000  -0.00352  -0.00295   3.13737
   D33       -3.14159  -0.00006   0.00000  -0.00050  -0.00049   3.14110
   D34        0.00117  -0.00080   0.00000  -0.00808  -0.00787  -0.00670
   D35        0.00148   0.00083   0.00000   0.00782   0.00833   0.00981
   D36       -3.14128  -0.00084   0.00000  -0.00870  -0.00834   3.13356
   D37       -3.14129   0.00157   0.00000   0.01546   0.01592  -3.12538
   D38       -0.00087  -0.00010   0.00000  -0.00107  -0.00076  -0.00162
   D39       -0.00282  -0.00158   0.00000  -0.01589  -0.01565  -0.01846
   D40        3.13991   0.00005   0.00000   0.00019   0.00086   3.14077
         Item               Value     Threshold  Converged?
 Maximum Force            0.104046     0.000450     NO 
 RMS     Force            0.021300     0.000300     NO 
 Maximum Displacement     0.277657     0.001800     NO 
 RMS     Displacement     0.053765     0.001200     NO 
 Predicted change in Energy=-3.355731D-02
 GradGradGradGradGradGradGradGradGradGradGradGradGradGradGradGradGradGrad

                          Input orientation:                          
 ---------------------------------------------------------------------
 Center     Atomic      Atomic             Coordinates (Angstroms)
 Number     Number       Type             X           Y           Z
 ---------------------------------------------------------------------
      1          7           0        1.013455   -0.002697    0.048365
      2          6           0        2.209148   -0.000623    0.035671
      3          6           0        3.666403    0.003508    0.049803
      4          6           0        4.329885    1.247249    0.045874
      5          6           0        5.741966    1.311686    0.046947
      6          6           0        6.499137    0.130054    0.055389
      7          6           0        5.891241   -1.167440    0.056952
      8          6           0        4.427373   -1.231587    0.059089
      9          6           0        3.818152   -2.520596    0.054544
     10          6           0        4.610889   -3.666165    0.044463
     11          6           0        6.044413   -3.566325    0.040997
     12          6           0        6.745550   -2.334590    0.058918
     13          7           0        7.508098   -5.783649    0.037518
     14          6           0        6.835432   -4.795719    0.040644
     15          1           0        3.743329    2.174378    0.038351
     16          1           0        6.240580    2.287765    0.040824
     17          1           0        7.594916    0.194469    0.052040
     18          1           0        2.726619   -2.617664    0.056574
     19          1           0        4.107154   -4.645611    0.045298
 ---------------------------------------------------------------------
                    Distance matrix (angstroms):
                    1          2          3          4          5
     1  N    0.000000
     2  C    1.195762   0.000000
     3  C    2.652956   1.457329   0.000000
     4  C    3.544160   2.460652   1.409650   0.000000
     5  C    4.907792   3.768698   2.453426   1.413552   0.000000
     6  C    5.487292   4.292024   2.835564   2.440055   1.403436
     7  C    5.014927   3.862606   2.514175   2.875531   2.483637
     8  C    3.628377   2.536995   1.450731   2.480787   2.862961
     9  C    3.769108   2.989902   2.528666   3.802446   4.288066
    10  C    5.134447   4.382310   3.789272   4.921443   5.104738
    11  C    6.165228   5.236746   4.289372   5.109806   4.887382
    12  C    6.188275   5.101655   3.866255   4.320322   3.781885
    13  N    8.694821   7.843613   6.946219   7.715869   7.311846
    14  C    7.541123   6.662993   5.751122   6.541808   6.204523
    15  H    3.491699   2.661643   2.172262   1.097120   2.176893
    16  H    5.706935   4.635643   3.441554   2.175651   1.096076
    17  H    6.584414   5.389325   3.933152   3.430571   2.163706
    18  H    3.126188   2.667792   2.784562   4.184271   4.953000
    19  H    5.579215   5.017812   4.669967   5.897068   6.177541
                    6          7          8          9         10
     6  C    0.000000
     7  C    1.432840   0.000000
     8  C    2.479170   1.465275   0.000000
     9  C    3.770096   2.475628   1.425733   0.000000
    10  C    4.239915   2.807683   2.441529   1.393149   0.000000
    11  C    3.724271   2.403823   2.840096   2.459669   1.437000
    12  C    2.476934   1.446405   2.567209   2.933305   2.515965
    13  N    5.999184   4.891216   5.496599   4.925800   3.588538
    14  C    4.937262   3.749156   4.301410   3.778936   2.494894
    15  H    3.431330   3.972609   3.474039   4.695598   5.904629
    16  H    2.173196   3.472858   3.959027   5.384114   6.172940
    17  H    1.097676   2.181130   3.473761   4.651401   4.879444
    18  H    4.667103   3.481090   2.194033   1.095843   2.156381
    19  H    5.341223   3.909064   3.429036   2.144597   1.101392
                   11         12         13         14         15
    11  C    0.000000
    12  C    1.417422   0.000000
    13  N    2.656861   3.532413   0.000000
    14  C    1.461890   2.462838   1.195196   0.000000
    15  H    6.184712   5.417061   8.803617   7.625179   0.000000
    16  H    5.857376   4.649892   8.170333   7.108418   2.499825
    17  H    4.067893   2.667885   5.978766   5.047665   4.330699
    18  H    3.450791   4.028889   5.734664   4.650433   4.898744
    19  H    2.217622   3.507440   3.586308   2.732408   6.829690
                   16         17         18         19
    16  H    0.000000
    17  H    2.493239   0.000000
    18  H    6.034186   5.622138   0.000000
    19  H    7.254187   5.965811   2.453279   0.000000
 Stoichiometry    C12H5N2(1-)
 Framework group  C1[X(C12H5N2)]
 Deg. of freedom    51
 Full point group                 C1      NOp   1
 Largest Abelian subgroup         C1      NOp   1
 Largest concise Abelian subgroup C1      NOp   1
                         Standard orientation:                         
 ---------------------------------------------------------------------
 Center     Atomic      Atomic             Coordinates (Angstroms)
 Number     Number       Type             X           Y           Z
 ---------------------------------------------------------------------
      1          7           0        3.480828   -2.387970   -0.001428
      2          6           0        2.817598   -1.393089    0.012164
      3          6           0        2.010633   -0.179645   -0.000870
      4          6           0        2.675333    1.063437    0.005032
      5          6           0        1.943604    2.272858    0.005094
      6          6           0        0.540475    2.245029   -0.004180
      7          6           0       -0.199814    1.018249   -0.007738
      8          6           0        0.560958   -0.234047   -0.011049
      9          6           0       -0.171545   -1.457218   -0.008488
     10          6           0       -1.564492   -1.435455    0.000830
     11          6           0       -2.278725   -0.188531    0.005489
     12          6           0       -1.644932    1.079198   -0.010446
     13          7           0       -4.935534   -0.205155    0.007438
     14          6           0       -3.740379   -0.214801    0.004978
     15          1           0        3.772063    1.091531    0.013214
     16          1           0        2.477535    3.230064    0.012749
     17          1           0       -0.015375    3.191553    0.000068
     18          1           0        0.354804   -2.418373   -0.011453
     19          1           0       -2.098376   -2.398797   -0.001545
 ---------------------------------------------------------------------
 Rotational constants (GHZ):      1.4368776      0.4547826      0.3454505
 Standard basis: STO-3G (5D, 7F)
 There are    75 symmetry adapted cartesian basis functions of A   symmetry.
 There are    75 symmetry adapted basis functions of A   symmetry.
    75 basis functions,   225 primitive gaussians,    75 cartesian basis functions
    46 alpha electrons       46 beta electrons
       nuclear repulsion energy       693.3203206980 Hartrees.
 NAtoms=   19 NActive=   19 NUniq=   19 SFac= 1.00D+00 NAtFMM=   60 NAOKFM=F Big=F
 Integral buffers will be    131072 words long.
 Raffenetti 2 integral format.
 Two-electron integral symmetry is turned on.
 One-electron integrals computed using PRISM.
 NBasis=    75 RedAO= T EigKep=  1.73D-01  NBF=    75
 NBsUse=    75 1.00D-06 EigRej= -1.00D+00 NBFU=    75
 Initial guess from the checkpoint file:  "/tmp/bnp.472688.sequoia/Gau-26633.chk"
 B after Tr=     0.000000    0.000000    0.000000
         Rot=    1.000000   -0.000046   -0.000005   -0.000042 Ang=  -0.01 deg.
 ExpMin= 1.69D-01 ExpMax= 9.91D+01 ExpMxC= 9.91D+01 IAcc=1 IRadAn=         1 AccDes= 0.00D+00
 Harris functional with IExCor=  402 and IRadAn=       1 diagonalized for initial guess.
 HarFok:  IExCor=  402 AccDes= 0.00D+00 IRadAn=         1 IDoV= 1 UseB2=F ITyADJ=14
 ICtDFT=  3500011 ScaDFX=  1.000000  1.000000  1.000000  1.000000
 FoFCou: FMM=F IPFlag=           0 FMFlag=      100000 FMFlg1=           0
         NFxFlg=           0 DoJE=T BraDBF=F KetDBF=T FulRan=T
         wScrn=  0.000000 ICntrl=     500 IOpCl=  0 I1Cent=   200000004 NGrid=           0
         NMat0=    1 NMatS0=      1 NMatT0=    0 NMatD0=    1 NMtDS0=    0 NMtDT0=    0
 Petite list used in FoFCou.
 Keep R1 ints in memory in canonical form, NReq=4993994.
 Requested convergence on RMS density matrix=1.00D-08 within 128 cycles.
 Requested convergence on MAX density matrix=1.00D-06.
 Requested convergence on             energy=1.00D-06.
 No special actions if energy rises.
 Integral accuracy reduced to 1.0D-05 until final iterations.
 Initial convergence to 1.0D-05 achieved.  Increase integral accuracy.
 SCF Done:  E(RB3LYP) =  -562.518312339     A.U. after   20 cycles
            NFock= 20  Conv=0.83D-08     -V/T= 2.0139
 Calling FoFJK, ICntrl=      2127 FMM=F ISym2X=0 I1Cent= 0 IOpClX= 0 NMat=1 NMatS=1 NMatT=0.
 ***** Axes restored to original set *****
 -------------------------------------------------------------------
 Center     Atomic                   Forces (Hartrees/Bohr)
 Number     Number              X              Y              Z
 -------------------------------------------------------------------
      1        7          -0.010997958    0.000147714   -0.000616129
      2        6           0.007332548   -0.001864470    0.001364278
      3        6           0.002322389    0.006246231   -0.000582681
      4        6          -0.002599127   -0.001388554   -0.000140692
      5        6           0.006894674   -0.004098632    0.000329954
      6        6          -0.007965218    0.009675347   -0.000372395
      7        6          -0.015713196   -0.002421810    0.000501436
      8        6           0.001077913    0.006231739   -0.000740558
      9        6          -0.002391763   -0.009270527    0.000049523
     10        6          -0.005684088   -0.003219893   -0.000176599
     11        6          -0.014727663    0.014190070    0.000672787
     12        6           0.040562525   -0.006300753   -0.000068336
     13        7           0.006163176   -0.009289141    0.000032257
     14        6          -0.004182306    0.000532141   -0.000303239
     15        1          -0.001348145    0.000585539   -0.000083519
     16        1          -0.000286577    0.001298759    0.000041783
     17        1           0.002009105   -0.002058460    0.000044404
     18        1          -0.000865483    0.002296759    0.000122961
     19        1           0.000399193   -0.001292058   -0.000075236
 -------------------------------------------------------------------
 Cartesian Forces:  Max     0.040562525 RMS     0.007433278

 GradGradGradGradGradGradGradGradGradGradGradGradGradGradGradGradGradGrad
 Berny optimization.
 Using GEDIIS/GDIIS optimizer.
 FormGI is forming the generalized inverse of G from B-inverse, IUseBI=4.
 Internal  Forces:  Max     0.021979118 RMS     0.004749483
 Search for a local minimum.
 Step number   2 out of a maximum of  102
 All quantities printed in internal units (Hartrees-Bohrs-Radians)
 Mixed Optimization -- RFO/linear search
 Update second derivatives using D2CorX and points    1    2
 DE= -3.22D-02 DEPred=-3.36D-02 R= 9.58D-01
 TightC=F SS=  1.41D+00  RLast= 3.03D-01 DXNew= 5.0454D-01 9.0958D-01
 Trust test= 9.58D-01 RLast= 3.03D-01 DXMaxT set to 5.05D-01
 ITU=  1  0
 Use linear search instead of GDIIS.
     Eigenvalues ---    0.01600   0.01604   0.01874   0.01888   0.01926
     Eigenvalues ---    0.01956   0.01990   0.02059   0.02077   0.02108
     Eigenvalues ---    0.02129   0.02144   0.02161   0.02182   0.02189
     Eigenvalues ---    0.02190   0.04854   0.04863   0.15927   0.16000
     Eigenvalues ---    0.16000   0.16000   0.16089   0.21961   0.22316
     Eigenvalues ---    0.22608   0.23662   0.24632   0.24986   0.24999
     Eigenvalues ---    0.25110   0.34796   0.34852   0.34977   0.35035
     Eigenvalues ---    0.35161   0.38669   0.40062   0.40447   0.40929
     Eigenvalues ---    0.41306   0.43079   0.43357   0.45054   0.45493
     Eigenvalues ---    0.45734   0.46665   0.46751   0.50744   1.27211
     Eigenvalues ---    1.33836
 RFO step:  Lambda=-4.29058895D-03 EMin= 1.59957907D-02
 Quartic linear search produced a step of  0.32395.
 Iteration  1 RMS(Cart)=  0.03832606 RMS(Int)=  0.00141137
 Iteration  2 RMS(Cart)=  0.00210060 RMS(Int)=  0.00030889
 Iteration  3 RMS(Cart)=  0.00000228 RMS(Int)=  0.00030888
 Iteration  4 RMS(Cart)=  0.00000000 RMS(Int)=  0.00030888
 Variable       Old X    -DE/DX   Delta X   Delta X   Delta X     New X
                                 (Linear)    (Quad)   (Total)
    R1        2.25966   0.01099   0.02138  -0.00960   0.01178   2.27144
    R2        2.75395   0.00366   0.01246  -0.00082   0.01164   2.76559
    R3        2.66385  -0.00216   0.00357  -0.01006  -0.00662   2.65723
    R4        2.74148   0.00341   0.01824  -0.00764   0.01053   2.75201
    R5        2.67123   0.00294   0.01279  -0.00538   0.00735   2.67858
    R6        2.07326   0.00122   0.00525  -0.00091   0.00434   2.07760
    R7        2.65211  -0.00336   0.00692  -0.01686  -0.00986   2.64225
    R8        2.07128   0.00103   0.00537  -0.00176   0.00361   2.07490
    R9        2.70767   0.00440   0.02057  -0.00826   0.01244   2.72012
   R10        2.07431   0.00188   0.00492   0.00196   0.00688   2.08119
   R11        2.76897   0.00431   0.03019  -0.01646   0.01363   2.78260
   R12        2.73331   0.02102   0.03163   0.02874   0.06074   2.79405
   R13        2.69424   0.00403   0.00474   0.00628   0.01042   2.70467
   R14        2.63267  -0.00344  -0.00448  -0.00705  -0.01194   2.62073
   R15        2.07084   0.00066   0.00346  -0.00112   0.00234   2.07318
   R16        2.71554   0.00577   0.02664  -0.01156   0.01527   2.73081
   R17        2.08133   0.00097   0.00781  -0.00449   0.00331   2.08464
   R18        2.67854   0.01164   0.01645   0.01662   0.03365   2.71219
   R19        2.76257   0.00844   0.02012   0.00620   0.02632   2.78889
   R20        2.25859   0.01115   0.02097  -0.00903   0.01194   2.27054
    A1        2.06363   0.00177   0.00248   0.00621   0.00881   2.07244
    A2        2.12018  -0.00255  -0.00081  -0.01275  -0.01344   2.10674
    A3        2.09936   0.00078  -0.00167   0.00660   0.00465   2.10401
    A4        2.10645  -0.00111   0.00125  -0.00918  -0.00820   2.09825
    A5        2.08746  -0.00030  -0.00487   0.00249  -0.00225   2.08521
    A6        2.08927   0.00141   0.00362   0.00671   0.01046   2.09973
    A7        2.09506  -0.00001   0.00152  -0.00381  -0.00234   2.09272
    A8        2.08866  -0.00087  -0.00330  -0.00228  -0.00556   2.08310
    A9        2.09947   0.00088   0.00178   0.00609   0.00790   2.10737
   A10        2.13358   0.00470   0.00942   0.01674   0.02629   2.15987
   A11        2.08191  -0.00010   0.00147   0.00284   0.00423   2.08614
   A12        2.06766  -0.00460  -0.01089  -0.01951  -0.03048   2.03718
   A13        2.05273  -0.00639  -0.01813  -0.01497  -0.03304   2.01969
   A14        2.07159  -0.00312  -0.00044  -0.01856  -0.01916   2.05243
   A15        2.15886   0.00951   0.01857   0.03353   0.05220   2.21106
   A16        2.07917   0.00204   0.00761   0.00468   0.01267   2.09184
   A17        2.14785  -0.00293  -0.00953  -0.00576  -0.01481   2.13304
   A18        2.05609   0.00089   0.00189   0.00124   0.00222   2.05831
   A19        2.09475  -0.00234  -0.00803  -0.01036  -0.01956   2.07520
   A20        2.10099  -0.00128  -0.00185  -0.00791  -0.00919   2.09180
   A21        2.08744   0.00362   0.00989   0.01828   0.02875   2.11619
   A22        2.10660   0.00064   0.00489  -0.00610  -0.00157   2.10503
   A23        2.06121   0.00067  -0.00813   0.01741   0.00946   2.07066
   A24        2.11536  -0.00131   0.00323  -0.01128  -0.00787   2.10749
   A25        2.15772   0.01329   0.02291   0.04559   0.06913   2.22685
   A26        2.07300  -0.01103  -0.01617  -0.04044  -0.05704   2.01596
   A27        2.05233  -0.00225  -0.00679  -0.00475  -0.01197   2.04037
   A28        1.99220  -0.02198  -0.04028  -0.06364  -0.10230   1.88989
   A29        3.14253   0.00039  -0.00099   0.02794   0.02694   3.16947
   A30        3.16764  -0.00030   0.00673  -0.01753  -0.01079   3.15685
   A31        3.16230  -0.00162   0.00673  -0.12130  -0.11458   3.04772
   A32        3.13867   0.00011  -0.00089   0.00406   0.00318   3.14185
    D1       -3.13163  -0.00015   0.00306  -0.01478  -0.01173   3.13983
    D2        0.00620  -0.00009   0.00175  -0.00921  -0.00750  -0.00130
    D3        0.00325  -0.00007   0.00071  -0.00521  -0.00450  -0.00125
    D4        3.14107  -0.00001  -0.00060   0.00035  -0.00026   3.14081
    D5        3.12890   0.00015  -0.00316   0.01577   0.01260   3.14150
    D6        0.00052   0.00003  -0.00064   0.00195   0.00127   0.00179
    D7       -0.00575   0.00006  -0.00074   0.00581   0.00513  -0.00061
    D8       -3.13413  -0.00006   0.00178  -0.00801  -0.00619  -3.14032
    D9       -0.00282   0.00009  -0.00067   0.00536   0.00465   0.00183
   D10        3.13842   0.00006  -0.00102   0.00473   0.00369  -3.14107
   D11       -3.14064   0.00003   0.00064  -0.00020   0.00041  -3.14024
   D12        0.00060   0.00000   0.00029  -0.00083  -0.00055   0.00005
   D13        0.00511  -0.00009   0.00068  -0.00627  -0.00562  -0.00052
   D14        3.13732   0.00000  -0.00095   0.00196   0.00105   3.13837
   D15       -3.13613  -0.00006   0.00103  -0.00563  -0.00465  -3.14079
   D16       -0.00392   0.00003  -0.00060   0.00260   0.00202  -0.00190
   D17       -0.00750   0.00011  -0.00062   0.00687   0.00622  -0.00128
   D18        3.13612   0.00004  -0.00203   0.00544   0.00346   3.13958
   D19       -3.13979   0.00000   0.00096  -0.00140  -0.00045  -3.14024
   D20        0.00383  -0.00007  -0.00044  -0.00284  -0.00321   0.00062
   D21        0.00767  -0.00011   0.00064  -0.00657  -0.00586   0.00181
   D22        3.13675  -0.00002  -0.00179   0.00647   0.00485  -3.14159
   D23       -3.13606  -0.00005   0.00204  -0.00512  -0.00292  -3.13897
   D24       -0.00698   0.00004  -0.00039   0.00792   0.00779   0.00081
   D25       -3.12663  -0.00015   0.00525  -0.01442  -0.00895  -3.13558
   D26        0.01712  -0.00020   0.00390  -0.01589  -0.01193   0.00520
   D27        3.12536  -0.00001  -0.00497   0.01307   0.00824   3.13361
   D28       -0.01373   0.00007  -0.00335   0.01057   0.00720  -0.00653
   D29       -0.00319  -0.00014  -0.00250  -0.00060  -0.00295  -0.00614
   D30        3.14091  -0.00006  -0.00088  -0.00310  -0.00399   3.13692
   D31        0.00199   0.00016   0.00143   0.00162   0.00290   0.00489
   D32        3.13737   0.00021  -0.00096   0.00782   0.00668  -3.13914
   D33        3.14110   0.00007  -0.00016   0.00406   0.00390  -3.13818
   D34       -0.00670   0.00012  -0.00255   0.01026   0.00768   0.00097
   D35        0.00981   0.00001   0.00270  -0.01002  -0.00752   0.00229
   D36        3.13356   0.00030  -0.00270   0.01666   0.01370  -3.13593
   D37       -3.12538  -0.00005   0.00516  -0.01652  -0.01144  -3.13681
   D38       -0.00162   0.00024  -0.00025   0.01017   0.00978   0.00816
   D39       -0.01846   0.00016  -0.00507   0.01675   0.01164  -0.00683
   D40        3.14077  -0.00004   0.00028  -0.00930  -0.00942   3.13135
         Item               Value     Threshold  Converged?
 Maximum Force            0.021979     0.000450     NO 
 RMS     Force            0.004749     0.000300     NO 
 Maximum Displacement     0.179588     0.001800     NO 
 RMS     Displacement     0.038040     0.001200     NO 
 Predicted change in Energy=-3.812634D-03
 GradGradGradGradGradGradGradGradGradGradGradGradGradGradGradGradGradGrad

                          Input orientation:                          
 ---------------------------------------------------------------------
 Center     Atomic      Atomic             Coordinates (Angstroms)
 Number     Number       Type             X           Y           Z
 ---------------------------------------------------------------------
      1          7           0        1.010251   -0.021707   -0.035146
      2          6           0        2.207706   -0.028867    0.068999
      3          6           0        3.670807    0.003854    0.061259
      4          6           0        4.319210    1.251560    0.053994
      5          6           0        5.734998    1.319820    0.048552
      6          6           0        6.489640    0.142736    0.048194
      7          6           0        5.913739   -1.176449    0.053735
      8          6           0        4.442297   -1.231306    0.061716
      9          6           0        3.819455   -2.519911    0.067459
     10          6           0        4.620839   -3.651721    0.057835
     11          6           0        6.061046   -3.533497    0.048351
     12          6           0        6.840584   -2.328424    0.049961
     13          7           0        7.423333   -5.838037    0.017154
     14          6           0        6.803282   -4.808968    0.031067
     15          1           0        3.719354    2.172914    0.053020
     16          1           0        6.226490    2.301649    0.043403
     17          1           0        7.589281    0.202998    0.040860
     18          1           0        2.725170   -2.597470    0.077912
     19          1           0        4.136259   -4.642735    0.059936
 ---------------------------------------------------------------------
                    Distance matrix (angstroms):
                    1          2          3          4          5
     1  N    0.000000
     2  C    1.201997   0.000000
     3  C    2.662425   1.463487   0.000000
     4  C    3.546599   2.469447   1.406147   0.000000
     5  C    4.912223   3.776396   2.448023   1.417443   0.000000
     6  C    5.482490   4.285422   2.822283   2.437271   1.398218
     7  C    5.038406   3.879673   2.534545   2.904781   2.502666
     8  C    3.640254   2.537579   1.456302   2.485926   2.859981
     9  C    3.760742   2.966992   2.528146   3.804462   4.291061
    10  C    5.120742   4.352977   3.777009   4.912551   5.094866
    11  C    6.152250   5.208751   4.269222   5.092228   4.864257
    12  C    6.270644   5.172223   3.935370   4.378770   3.812087
    13  N    8.657948   7.807172   6.943421   7.739466   7.354345
    14  C    7.515415   6.630998   5.742523   6.549896   6.221221
    15  H    3.487603   2.670800   2.169619   1.099419   2.188746
    16  H    5.710806   4.645707   3.436816   2.177273   1.097989
    17  H    6.583306   5.386642   3.923585   3.434097   2.164652
    18  H    3.096496   2.620224   2.767922   4.166121   4.940151
    19  H    5.579863   5.000718   4.669843   5.897136   6.173181
                    6          7          8          9         10
     6  C    0.000000
     7  C    1.439424   0.000000
     8  C    2.465723   1.472487   0.000000
     9  C    3.770935   2.488194   1.431247   0.000000
    10  C    4.229706   2.792594   2.426995   1.386832   0.000000
    11  C    3.701132   2.361652   2.814358   2.460173   1.445083
    12  C    2.495955   1.478547   2.637345   3.027242   2.584269
    13  N    6.053296   4.900063   5.487308   4.899024   3.554660
    14  C    4.961657   3.739919   4.286591   3.760895   2.470424
    15  H    3.434550   4.004193   3.480149   4.693915   5.893986
    16  H    2.174898   3.492147   3.957961   5.389049   6.166113
    17  H    1.101316   2.170364   3.458493   4.650434   4.865264
    18  H    4.656269   3.490968   2.194354   1.097079   2.169195
    19  H    5.332848   3.895461   3.425130   2.146346   1.103146
                   11         12         13         14         15
    11  C    0.000000
    12  C    1.435229   0.000000
    13  N    2.677258   3.557817   0.000000
    14  C    1.475819   2.480897   1.201516   0.000000
    15  H    6.168198   5.477603   8.825877   7.632678   0.000000
    16  H    5.837493   4.670624   8.227249   7.133984   2.510458
    17  H    4.036948   2.639834   6.043360   5.073233   4.342471
    18  H    3.464836   4.124294   5.707688   4.639387   4.872944
    19  H    2.221565   3.559426   3.497919   2.672354   6.828392
                   16         17         18         19
    16  H    0.000000
    17  H    2.502308   0.000000
    18  H    6.021777   5.612804   0.000000
    19  H    7.252160   5.950198   2.484875   0.000000
 Stoichiometry    C12H5N2(1-)
 Framework group  C1[X(C12H5N2)]
 Deg. of freedom    51
 Full point group                 C1      NOp   1
 Largest Abelian subgroup         C1      NOp   1
 Largest concise Abelian subgroup C1      NOp   1
                         Standard orientation:                         
 ---------------------------------------------------------------------
 Center     Atomic      Atomic             Coordinates (Angstroms)
 Number     Number       Type             X           Y           Z
 ---------------------------------------------------------------------
      1          7           0        3.453571   -2.422517    0.067027
      2          6           0        2.788228   -1.426368   -0.031977
      3          6           0        2.009913   -0.187086   -0.017845
      4          6           0        2.694404    1.041141   -0.004391
      5          6           0        1.971808    2.260511    0.007338
      6          6           0        0.573709    2.242305    0.007744
      7          6           0       -0.210371    1.035232   -0.003869
      8          6           0        0.554059   -0.223201   -0.018339
      9          6           0       -0.178647   -1.452619   -0.030272
     10          6           0       -1.564690   -1.406925   -0.020276
     11          6           0       -2.259024   -0.139681   -0.004264
     12          6           0       -1.682329    1.174580    0.000764
     13          7           0       -4.932851   -0.271624    0.026530
     14          6           0       -3.732419   -0.222503    0.012746
     15          1           0        3.793803    1.047734   -0.003494
     16          1           0        2.520758    3.211371    0.017276
     17          1           0        0.018516    3.193361    0.019979
     18          1           0        0.359157   -2.408712   -0.045651
     19          1           0       -2.125113   -2.357088   -0.027162
 ---------------------------------------------------------------------
 Rotational constants (GHZ):      1.4213036      0.4554870      0.3449974
 Standard basis: STO-3G (5D, 7F)
 There are    75 symmetry adapted cartesian basis functions of A   symmetry.
 There are    75 symmetry adapted basis functions of A   symmetry.
    75 basis functions,   225 primitive gaussians,    75 cartesian basis functions
    46 alpha electrons       46 beta electrons
       nuclear repulsion energy       691.6598585508 Hartrees.
 NAtoms=   19 NActive=   19 NUniq=   19 SFac= 1.00D+00 NAtFMM=   60 NAOKFM=F Big=F
 Integral buffers will be    131072 words long.
 Raffenetti 2 integral format.
 Two-electron integral symmetry is turned on.
 One-electron integrals computed using PRISM.
 NBasis=    75 RedAO= T EigKep=  1.77D-01  NBF=    75
 NBsUse=    75 1.00D-06 EigRej= -1.00D+00 NBFU=    75
 Initial guess from the checkpoint file:  "/tmp/bnp.472688.sequoia/Gau-26633.chk"
 B after Tr=     0.000000    0.000000    0.000000
         Rot=    0.999997   -0.000114   -0.000004    0.002240 Ang=  -0.26 deg.
 ExpMin= 1.69D-01 ExpMax= 9.91D+01 ExpMxC= 9.91D+01 IAcc=1 IRadAn=         1 AccDes= 0.00D+00
 Harris functional with IExCor=  402 and IRadAn=       1 diagonalized for initial guess.
 HarFok:  IExCor=  402 AccDes= 0.00D+00 IRadAn=         1 IDoV= 1 UseB2=F ITyADJ=14
 ICtDFT=  3500011 ScaDFX=  1.000000  1.000000  1.000000  1.000000
 FoFCou: FMM=F IPFlag=           0 FMFlag=      100000 FMFlg1=           0
         NFxFlg=           0 DoJE=T BraDBF=F KetDBF=T FulRan=T
         wScrn=  0.000000 ICntrl=     500 IOpCl=  0 I1Cent=   200000004 NGrid=           0
         NMat0=    1 NMatS0=      1 NMatT0=    0 NMatD0=    1 NMtDS0=    0 NMtDT0=    0
 Petite list used in FoFCou.
 Keep R1 ints in memory in canonical form, NReq=4993994.
 Requested convergence on RMS density matrix=1.00D-08 within 128 cycles.
 Requested convergence on MAX density matrix=1.00D-06.
 Requested convergence on             energy=1.00D-06.
 No special actions if energy rises.
 Integral accuracy reduced to 1.0D-05 until final iterations.
 Initial convergence to 1.0D-05 achieved.  Increase integral accuracy.
 SCF Done:  E(RB3LYP) =  -562.521853441     A.U. after   17 cycles
            NFock= 17  Conv=0.43D-08     -V/T= 2.0140
 Calling FoFJK, ICntrl=      2127 FMM=F ISym2X=0 I1Cent= 0 IOpClX= 0 NMat=1 NMatS=1 NMatT=0.
 ***** Axes restored to original set *****
 -------------------------------------------------------------------
 Center     Atomic                   Forces (Hartrees/Bohr)
 Number     Number              X              Y              Z
 -------------------------------------------------------------------
      1        7           0.003189300   -0.000754763    0.004073369
      2        6          -0.002790866    0.001098257   -0.007619214
      3        6           0.001762913   -0.001119925    0.003402116
      4        6          -0.001558751    0.000829810    0.000440279
      5        6           0.001257896   -0.000149601   -0.000435149
      6        6           0.001224615    0.000433000   -0.000076826
      7        6          -0.010095296    0.007600916    0.000109182
      8        6           0.004206161    0.000940725   -0.000040477
      9        6          -0.001703524   -0.000574541    0.000106382
     10        6           0.000378145   -0.001327705    0.000228381
     11        6          -0.001760053   -0.002341189   -0.000085181
     12        6           0.003713196   -0.002691380   -0.000505734
     13        7          -0.002178127    0.003405447   -0.000017527
     14        6           0.002108255   -0.005033574    0.000314251
     15        1           0.000557925   -0.000478250    0.000197443
     16        1          -0.000194149   -0.000530010   -0.000085469
     17        1          -0.000498286    0.000077210    0.000220204
     18        1           0.000358879    0.000249680   -0.000110850
     19        1           0.002021767    0.000365892   -0.000115181
 -------------------------------------------------------------------
 Cartesian Forces:  Max     0.010095296 RMS     0.002589922

 GradGradGradGradGradGradGradGradGradGradGradGradGradGradGradGradGradGrad
 Berny optimization.
 Using GEDIIS/GDIIS optimizer.
 FormGI is forming the generalized inverse of G from B-inverse, IUseBI=4.
 Internal  Forces:  Max     0.008433704 RMS     0.001560924
 Search for a local minimum.
 Step number   3 out of a maximum of  102
 All quantities printed in internal units (Hartrees-Bohrs-Radians)
 Mixed Optimization -- RFO/linear search
 Update second derivatives using D2CorX and points    1    2    3
 DE= -3.54D-03 DEPred=-3.81D-03 R= 9.29D-01
 TightC=F SS=  1.41D+00  RLast= 2.23D-01 DXNew= 8.4853D-01 6.7017D-01
 Trust test= 9.29D-01 RLast= 2.23D-01 DXMaxT set to 6.70D-01
 ITU=  1  1  0
 Use linear search instead of GDIIS.
     Eigenvalues ---    0.01599   0.01838   0.01876   0.01901   0.01955
     Eigenvalues ---    0.01960   0.01993   0.02059   0.02075   0.02109
     Eigenvalues ---    0.02130   0.02145   0.02162   0.02185   0.02189
     Eigenvalues ---    0.02218   0.04854   0.04866   0.15422   0.16000
     Eigenvalues ---    0.16000   0.16001   0.16125   0.20391   0.22129
     Eigenvalues ---    0.22618   0.23580   0.24634   0.24990   0.25008
     Eigenvalues ---    0.25529   0.34797   0.34844   0.34975   0.35057
     Eigenvalues ---    0.35182   0.38006   0.39035   0.40166   0.40507
     Eigenvalues ---    0.41445   0.42435   0.43256   0.44722   0.45514
     Eigenvalues ---    0.45795   0.46678   0.46755   0.51264   1.27216
     Eigenvalues ---    1.36520
 RFO step:  Lambda=-3.34712512D-03 EMin= 1.59931855D-02
 Quartic linear search produced a step of -0.10885.
 Iteration  1 RMS(Cart)=  0.04362380 RMS(Int)=  0.01807943
 Iteration  2 RMS(Cart)=  0.03387887 RMS(Int)=  0.00291156
 Iteration  3 RMS(Cart)=  0.00285489 RMS(Int)=  0.00001602
 Iteration  4 RMS(Cart)=  0.00000575 RMS(Int)=  0.00001577
 Iteration  5 RMS(Cart)=  0.00000000 RMS(Int)=  0.00001577
 Variable       Old X    -DE/DX   Delta X   Delta X   Delta X     New X
                                 (Linear)    (Quad)   (Total)
    R1        2.27144  -0.00353  -0.00128   0.00507   0.00379   2.27523
    R2        2.76559  -0.00039  -0.00127   0.00574   0.00447   2.77007
    R3        2.65723   0.00024   0.00072  -0.00215  -0.00143   2.65581
    R4        2.75201  -0.00099  -0.00115   0.00436   0.00321   2.75523
    R5        2.67858   0.00042  -0.00080   0.00578   0.00498   2.68356
    R6        2.07760  -0.00071  -0.00047   0.00072   0.00025   2.07785
    R7        2.64225  -0.00112   0.00107  -0.00587  -0.00480   2.63745
    R8        2.07490  -0.00056  -0.00039   0.00077   0.00038   2.07528
    R9        2.72012   0.00019  -0.00135   0.00807   0.00671   2.72683
   R10        2.08119  -0.00049  -0.00075   0.00240   0.00166   2.08284
   R11        2.78260  -0.00492  -0.00148  -0.00143  -0.00292   2.77967
   R12        2.79405   0.00665  -0.00661   0.04440   0.03779   2.83184
   R13        2.70467   0.00249  -0.00113   0.01022   0.00908   2.71374
   R14        2.62073   0.00202   0.00130  -0.00219  -0.00090   2.61983
   R15        2.07318  -0.00041  -0.00025   0.00037   0.00012   2.07330
   R16        2.73081  -0.00192  -0.00166   0.00610   0.00445   2.73526
   R17        2.08464  -0.00122  -0.00036  -0.00082  -0.00118   2.08346
   R18        2.71219   0.00239  -0.00366   0.02209   0.01845   2.73064
   R19        2.78889   0.00137  -0.00287   0.01720   0.01433   2.80323
   R20        2.27054  -0.00404  -0.00130   0.00475   0.00345   2.27398
    A1        2.07244  -0.00017  -0.00096   0.00381   0.00285   2.07529
    A2        2.10674  -0.00076   0.00146  -0.00896  -0.00749   2.09925
    A3        2.10401   0.00093  -0.00051   0.00515   0.00464   2.10864
    A4        2.09825  -0.00054   0.00089  -0.00495  -0.00406   2.09419
    A5        2.08521   0.00048   0.00025   0.00032   0.00056   2.08576
    A6        2.09973   0.00006  -0.00114   0.00464   0.00350   2.10323
    A7        2.09272  -0.00072   0.00025  -0.00274  -0.00248   2.09023
    A8        2.08310   0.00043   0.00061  -0.00162  -0.00101   2.08209
    A9        2.10737   0.00030  -0.00086   0.00436   0.00350   2.11086
   A10        2.15987  -0.00063  -0.00286   0.01079   0.00792   2.16778
   A11        2.08614   0.00021  -0.00046   0.00263   0.00217   2.08831
   A12        2.03718   0.00042   0.00332  -0.01341  -0.01009   2.02709
   A13        2.01969   0.00208   0.00360  -0.01044  -0.00685   2.01284
   A14        2.05243  -0.00075   0.00209  -0.01122  -0.00912   2.04332
   A15        2.21106  -0.00133  -0.00568   0.02166   0.01597   2.22703
   A16        2.09184  -0.00111  -0.00138   0.00220   0.00083   2.09267
   A17        2.13304   0.00049   0.00161  -0.00503  -0.00340   2.12964
   A18        2.05831   0.00062  -0.00024   0.00284   0.00257   2.06088
   A19        2.07520   0.00060   0.00213  -0.00889  -0.00680   2.06839
   A20        2.09180  -0.00053   0.00100  -0.00619  -0.00518   2.08663
   A21        2.11619  -0.00006  -0.00313   0.01509   0.01198   2.12816
   A22        2.10503   0.00029   0.00017   0.00037   0.00052   2.10555
   A23        2.07066   0.00158  -0.00103   0.01285   0.01182   2.08249
   A24        2.10749  -0.00187   0.00086  -0.01321  -0.01234   2.09515
   A25        2.22685  -0.00122  -0.00752   0.03048   0.02297   2.24982
   A26        2.01596  -0.00074   0.00621  -0.03099  -0.02479   1.99118
   A27        2.04037   0.00196   0.00130   0.00050   0.00180   2.04217
   A28        1.88989   0.00104   0.01114  -0.04637  -0.03521   1.85469
   A29        3.16947  -0.00155  -0.00293  -0.06114  -0.06407   3.10540
   A30        3.15685  -0.00025   0.00117  -0.00851  -0.00734   3.14951
   A31        3.04772   0.00843   0.01247   0.34738   0.35985   3.40757
   A32        3.14185  -0.00012  -0.00035  -0.00076  -0.00111   3.14074
    D1        3.13983   0.00033   0.00128   0.00812   0.00940  -3.13396
    D2       -0.00130   0.00022   0.00082   0.00551   0.00634   0.00504
    D3       -0.00125   0.00019   0.00049   0.00538   0.00587   0.00461
    D4        3.14081   0.00008   0.00003   0.00277   0.00281  -3.13957
    D5        3.14150  -0.00022  -0.00137  -0.00404  -0.00540   3.13610
    D6        0.00179  -0.00026  -0.00014  -0.00989  -0.01003  -0.00824
    D7       -0.00061  -0.00008  -0.00056  -0.00124  -0.00181  -0.00243
    D8       -3.14032  -0.00012   0.00067  -0.00709  -0.00644   3.13642
    D9        0.00183  -0.00019  -0.00051  -0.00501  -0.00549  -0.00366
   D10       -3.14107  -0.00010  -0.00040  -0.00223  -0.00262   3.13949
   D11       -3.14024  -0.00008  -0.00004  -0.00238  -0.00240   3.14055
   D12        0.00005   0.00001   0.00006   0.00040   0.00046   0.00051
   D13       -0.00052   0.00008   0.00061   0.00039   0.00101   0.00049
   D14        3.13837   0.00017  -0.00011   0.00671   0.00660  -3.13822
   D15       -3.14079  -0.00001   0.00051  -0.00242  -0.00190   3.14050
   D16       -0.00190   0.00008  -0.00022   0.00390   0.00369   0.00179
   D17       -0.00128   0.00002  -0.00068   0.00357   0.00289   0.00161
[...]
 ! D14   D(4,5,6,17)           179.9936         -DE/DX =    0.0                 !
 ! D15   D(16,5,6,7)          -179.997          -DE/DX =    0.0                 !
 ! D16   D(16,5,6,17)           -0.0025         -DE/DX =    0.0                 !
 ! D17   D(5,6,7,8)             -0.013          -DE/DX =    0.0                 !
 ! D18   D(5,6,7,12)           179.982          -DE/DX =    0.0                 !
 ! D19   D(17,6,7,8)           179.9924         -DE/DX =    0.0                 !
 ! D20   D(17,6,7,12)           -0.0126         -DE/DX =    0.0                 !
 ! D21   D(6,7,8,3)              0.02           -DE/DX =    0.0                 !
 ! D22   D(6,7,8,9)           -179.9765         -DE/DX =    0.0                 !
 ! D23   D(12,7,8,3)          -179.9744         -DE/DX =    0.0                 !
 ! D24   D(12,7,8,9)             0.0292         -DE/DX =    0.0                 !
 ! D25   D(6,7,12,11)          179.9965         -DE/DX =    0.0                 !
 ! D26   D(8,7,12,11)           -0.0091         -DE/DX =    0.0                 !
 ! D27   D(3,8,9,10)           179.986          -DE/DX =    0.0                 !
 ! D28   D(3,8,9,18)            -0.0173         -DE/DX =    0.0                 !
 ! D29   D(7,8,9,10)            -0.0176         -DE/DX =    0.0                 !
 ! D30   D(7,8,9,18)           179.9791         -DE/DX =    0.0                 !
 ! D31   D(8,9,10,11)           -0.0108         -DE/DX =    0.0                 !
 ! D32   D(8,9,10,19)          179.9913         -DE/DX =    0.0                 !
 ! D33   D(18,9,10,11)         179.9926         -DE/DX =    0.0                 !
 ! D34   D(18,9,10,19)          -0.0054         -DE/DX =    0.0                 !
 ! D35   D(9,10,11,12)           0.0344         -DE/DX =    0.0                 !
 ! D36   D(9,10,11,14)        -179.962          -DE/DX =    0.0                 !
 ! D37   D(19,10,11,12)       -179.9676         -DE/DX =    0.0                 !
 ! D38   D(19,10,11,14)          0.0359         -DE/DX =    0.0                 !
 ! D39   D(10,11,12,7)          -0.0228         -DE/DX =    0.0                 !
 ! D40   D(14,11,12,7)         179.9737         -DE/DX =    0.0                 !
 --------------------------------------------------------------------------------
 GradGradGradGradGradGradGradGradGradGradGradGradGradGradGradGradGradGrad

                          Input orientation:                          
 ---------------------------------------------------------------------
 Center     Atomic      Atomic             Coordinates (Angstroms)
 Number     Number       Type             X           Y           Z
 ---------------------------------------------------------------------
      1          7           0        1.011981   -0.049575    0.045760
      2          6           0        2.212055   -0.029370    0.046652
      3          6           0        3.674412    0.008033    0.047643
      4          6           0        4.319923    1.257097    0.048435
      5          6           0        5.736614    1.326942    0.049400
      6          6           0        6.488857    0.149329    0.049396
      7          6           0        5.905132   -1.165660    0.048471
      8          6           0        4.443701   -1.227894    0.047797
      9          6           0        3.820149   -2.519826    0.047386
     10          6           0        4.624045   -3.650619    0.047270
     11          6           0        6.063183   -3.534053    0.047323
     12          6           0        6.843549   -2.325993    0.048177
     13          7           0        7.399185   -5.853880    0.045535
     14          6           0        6.796290   -4.816610    0.046300
     15          1           0        3.720151    2.177372    0.048275
     16          1           0        6.227892    2.308090    0.050076
     17          1           0        7.587991    0.204747    0.050038
     18          1           0        2.726334   -2.595612    0.047226
     19          1           0        4.152295   -4.646078    0.047101
 ---------------------------------------------------------------------
                    Distance matrix (angstroms):
                    1          2          3          4          5
     1  N    0.000000
     2  C    1.200245   0.000000
     3  C    2.663055   1.462835   0.000000
     4  C    3.556667   2.469435   1.406003   0.000000
     5  C    4.921074   3.776520   2.447897   1.418412   0.000000
     6  C    5.480488   4.280534   2.817990   2.435451   1.397369
     7  C    5.018823   3.863933   2.520649   2.895279   2.498292
     8  C    3.628380   2.533121   1.455789   2.488072   2.863357
     9  C    3.740047   2.964513   2.532057   3.809846   4.297728
    10  C    5.100444   4.350993   3.779886   4.917130   5.100385
    11  C    6.136468   5.207109   4.272306   5.098438   4.871952
    12  C    6.260134   5.169643   3.935874   4.382604   3.816967
    13  N    8.630547   7.799438   6.945212   7.749055   7.370777
    14  C    7.495522   6.628187   5.746590   6.559139   6.234272
    15  H    3.506207   2.672839   2.169821   1.098468   2.188459
    16  H    5.724014   4.646577   3.436645   2.178287   1.097272
    17  H    6.580927   5.381032   3.918520   3.433323   2.164929
    18  H    3.069416   2.617266   2.770889   4.169280   4.944514
    19  H    5.566814   5.007846   4.678581   5.905555   6.179566
                    6          7          8          9         10
     6  C    0.000000
     7  C    1.438726   0.000000
     8  C    2.465646   1.462756   0.000000
     9  C    3.774440   2.486146   1.434540   0.000000
    10  C    4.232864   2.795748   2.429428   1.387422   0.000000
    11  C    3.707898   2.373661   2.817995   2.461678   1.443852
    12  C    2.500606   1.492313   2.639146   3.029607   2.584731
    13  N    6.071839   4.920529   5.489503   4.891362   3.543412
    14  C    4.975447   3.758138   4.291102   3.759339   2.465397
    15  H    3.432009   3.993746   3.481287   4.698262   5.897669
    16  H    2.174477   3.488713   3.960622   5.394999   6.170782
    17  H    1.100530   2.170260   3.455289   4.649724   4.863006
    18  H    4.657391   3.485617   2.195451   1.096438   2.171255
    19  H    5.334366   3.896889   3.430583   2.152038   1.101583
                   11         12         13         14         15
    11  C    0.000000
    12  C    1.438187   0.000000
    13  N    2.677032   3.571376   0.000000
    14  C    1.477294   2.491066   1.199755   0.000000
    15  H    6.173344   5.480502   8.833816   7.640576   0.000000
    16  H    5.844465   4.674801   8.245587   7.147338   2.511146
    17  H    4.037780   2.637961   6.061569   5.083387   4.341824
    18  H    3.466300   4.126034   5.696653   4.636526   4.875351
    19  H    2.210903   3.553258   3.464258   2.649488   6.837120
                   16         17         18         19
    16  H    0.000000
    17  H    2.504780   0.000000
    18  H    6.025547   5.610501   0.000000
    19  H    7.257311   5.944284   2.497554   0.000000
 Stoichiometry    C12H5N2(1-)
 Framework group  C1[X(C12H5N2)]
 Deg. of freedom    51
 Full point group                 C1      NOp   1
 Largest Abelian subgroup         C1      NOp   1
 Largest concise Abelian subgroup C1      NOp   1
                         Standard orientation:                         
 ---------------------------------------------------------------------
 Center     Atomic      Atomic             Coordinates (Angstroms)
 Number     Number       Type             X           Y           Z
 ---------------------------------------------------------------------
      1          7           0        3.417607   -2.451184    0.000701
      2          6           0        2.778645   -1.435155    0.000390
      3          6           0        2.010740   -0.190080    0.000113
      4          6           0        2.703959    1.033150    0.000261
      5          6           0        1.988180    2.257713    0.000005
      6          6           0        0.590877    2.244063   -0.000231
      7          6           0       -0.191318    1.036544   -0.000251
      8          6           0        0.555287   -0.221326   -0.000302
      9          6           0       -0.185832   -1.449596   -0.000843
     10          6           0       -1.572156   -1.394401   -0.000918
     11          6           0       -2.261078   -0.125506   -0.000228
     12          6           0       -1.675900    1.188247   -0.000099
     13          7           0       -4.933957   -0.274554    0.001019
     14          6           0       -3.735806   -0.212537    0.000493
     15          1           0        3.802426    1.033841    0.000603
     16          1           0        2.541329    3.205358    0.000059
     17          1           0        0.036572    3.194806   -0.000322
     18          1           0        0.348509   -2.407017   -0.001241
     19          1           0       -2.147963   -2.333513   -0.001478
 ---------------------------------------------------------------------
 Rotational constants (GHZ):      1.4152364      0.4561968      0.3449903

 **********************************************************************

            Population analysis using the SCF density.

 **********************************************************************

 Orbital symmetries:
       Occupied  (A) (A) (A) (A) (A) (A) (A) (A) (A) (A) (A) (A)
                 (A) (A) (A) (A) (A) (A) (A) (A) (A) (A) (A) (A)
                 (A) (A) (A) (A) (A) (A) (A) (A) (A) (A) (A) (A)
                 (A) (A) (A) (A) (A) (A) (A) (A) (A) (A)
       Virtual   (A) (A) (A) (A) (A) (A) (A) (A) (A) (A) (A) (A)
                 (A) (A) (A) (A) (A) (A) (A) (A) (A) (A) (A) (A)
                 (A) (A) (A) (A) (A)
 The electronic state is 1-A.
 Alpha  occ. eigenvalues --  -13.99137 -13.93050  -9.90389  -9.89648  -9.88818
 Alpha  occ. eigenvalues --   -9.87070  -9.87007  -9.86714  -9.85019  -9.83965
 Alpha  occ. eigenvalues --   -9.83705  -9.83434  -9.82465  -9.68096  -0.72708
 Alpha  occ. eigenvalues --   -0.67734  -0.67112  -0.61658  -0.58187  -0.54423
 Alpha  occ. eigenvalues --   -0.51161  -0.44996  -0.42291  -0.39774  -0.34734
 Alpha  occ. eigenvalues --   -0.31946  -0.30492  -0.28118  -0.25449  -0.22336
 Alpha  occ. eigenvalues --   -0.20665  -0.20557  -0.20193  -0.16877  -0.15528
 Alpha  occ. eigenvalues --   -0.14860  -0.14302  -0.13694  -0.12673  -0.10318
 Alpha  occ. eigenvalues --   -0.10070  -0.07960  -0.06398  -0.03040   0.01930
 Alpha  occ. eigenvalues --    0.10240
 Alpha virt. eigenvalues --    0.17034   0.21316   0.25692   0.26568   0.29787
 Alpha virt. eigenvalues --    0.31197   0.32635   0.38976   0.43154   0.46031
 Alpha virt. eigenvalues --    0.48337   0.49641   0.52032   0.56522   0.57123
 Alpha virt. eigenvalues --    0.58452   0.59901   0.62292   0.67001   0.69011
 Alpha virt. eigenvalues --    0.69645   0.75613   0.77777   0.82320   0.84973
 Alpha virt. eigenvalues --    0.91630   0.92572   1.06493   1.10749
          Condensed to atoms (all electrons):
               1          2          3          4          5          6
     1  N    6.592968   0.659433  -0.010742  -0.000129  -0.000001   0.000000
     2  C    0.659433   4.937630   0.417057  -0.031412   0.000917   0.000006
     3  C   -0.010742   0.417057   4.787364   0.506074  -0.029455  -0.010182
     4  C   -0.000129  -0.031412   0.506074   4.824793   0.485511  -0.029041
     5  C   -0.000001   0.000917  -0.029455   0.485511   4.839898   0.510643
     6  C    0.000000   0.000006  -0.010182  -0.029041   0.510643   4.836762
     7  C   -0.000001   0.000677  -0.022697  -0.008317  -0.025435   0.468185
     8  C   -0.000015  -0.026148   0.451554  -0.027619  -0.008190  -0.033552
     9  C   -0.000119  -0.004106  -0.028915   0.000688   0.000036   0.000875
    10  C    0.000000   0.000017   0.000804  -0.000007   0.000000   0.000012
    11  C    0.000000   0.000000   0.000052   0.000001  -0.000015   0.001367
    12  C    0.000000  -0.000004   0.000550   0.000013   0.000757  -0.034434
    13  N    0.000000   0.000000   0.000000   0.000000   0.000000   0.000000
    14  C    0.000000   0.000000   0.000000   0.000000   0.000000  -0.000005
    15  H    0.000059  -0.003695  -0.025482   0.386768  -0.024464   0.001357
    16  H    0.000000  -0.000018   0.001333  -0.026012   0.387867  -0.024916
    17  H    0.000000   0.000001   0.000032   0.001443  -0.026621   0.383721
    18  H   -0.000158   0.001486  -0.003536   0.000016  -0.000001  -0.000020
    19  H    0.000000   0.000000  -0.000016   0.000000   0.000000   0.000001
               7          8          9         10         11         12
     1  N   -0.000001  -0.000015  -0.000119   0.000000   0.000000   0.000000
     2  C    0.000677  -0.026148  -0.004106   0.000017   0.000000  -0.000004
     3  C   -0.022697   0.451554  -0.028915   0.000804   0.000052   0.000550
     4  C   -0.008317  -0.027619   0.000688  -0.000007   0.000001   0.000013
     5  C   -0.025435  -0.008190   0.000036   0.000000  -0.000015   0.000757
     6  C    0.468185  -0.033552   0.000875   0.000012   0.001367  -0.034434
     7  C    4.898633   0.441532  -0.029590  -0.012863  -0.028831   0.386585
     8  C    0.441532   4.822222   0.471625  -0.028766  -0.012088  -0.017154
     9  C   -0.029590   0.471625   4.861843   0.524739  -0.030074  -0.005611
    10  C   -0.012863  -0.028766   0.524739   4.847406   0.455341  -0.018077
    11  C   -0.028831  -0.012088  -0.030074   0.455341   4.893412   0.435882
    12  C    0.386585  -0.017154  -0.005611  -0.018077   0.435882   5.478945
    13  N   -0.000002   0.000000  -0.000001  -0.000019  -0.011005  -0.000009
    14  C    0.001435   0.000006   0.000920  -0.038535   0.403129  -0.033234
    15  H    0.000024   0.001218  -0.000016   0.000000   0.000000   0.000000
    16  H    0.001251   0.000007   0.000001   0.000000   0.000000  -0.000017
    17  H   -0.025853   0.001440  -0.000017   0.000000   0.000031  -0.001603
    18  H    0.001142  -0.025210   0.387499  -0.024952   0.001257  -0.000005
    19  H    0.000092   0.001469  -0.027128   0.381013  -0.023033   0.000955
              13         14         15         16         17         18
     1  N    0.000000   0.000000   0.000059   0.000000   0.000000  -0.000158
     2  C    0.000000   0.000000  -0.003695  -0.000018   0.000001   0.001486
     3  C    0.000000   0.000000  -0.025482   0.001333   0.000032  -0.003536
     4  C    0.000000   0.000000   0.386768  -0.026012   0.001443   0.000016
     5  C    0.000000   0.000000  -0.024464   0.387867  -0.026621  -0.000001
     6  C    0.000000  -0.000005   0.001357  -0.024916   0.383721  -0.000020
     7  C   -0.000002   0.001435   0.000024   0.001251  -0.025853   0.001142
     8  C    0.000000   0.000006   0.001218   0.000007   0.001440  -0.025210
     9  C   -0.000001   0.000920  -0.000016   0.000001  -0.000017   0.387499
    10  C   -0.000019  -0.038535   0.000000   0.000000   0.000000  -0.024952
    11  C   -0.011005   0.403129   0.000000   0.000000   0.000031   0.001257
    12  C   -0.000009  -0.033234   0.000000  -0.000017  -0.001603  -0.000005
    13  N    6.634264   0.659959   0.000000   0.000000   0.000000   0.000000
    14  C    0.659959   4.974238   0.000000   0.000000  -0.000002  -0.000020
    15  H    0.000000   0.000000   0.606155  -0.003407  -0.000034  -0.000001
    16  H    0.000000   0.000000  -0.003407   0.615488  -0.003694   0.000000
    17  H    0.000000  -0.000002  -0.000034  -0.003694   0.601191   0.000000
    18  H    0.000000  -0.000020  -0.000001   0.000000   0.000000   0.614603
    19  H    0.000041  -0.003257   0.000000   0.000000   0.000000  -0.003847
              19
     1  N    0.000000
     2  C    0.000000
     3  C   -0.000016
     4  C    0.000000
     5  C    0.000000
     6  C    0.000001
     7  C    0.000092
     8  C    0.001469
     9  C   -0.027128
    10  C    0.381013
    11  C   -0.023033
    12  C    0.000955
    13  N    0.000041
    14  C   -0.003257
    15  H    0.000000
    16  H    0.000000
    17  H    0.000000
    18  H   -0.003847
    19  H    0.623245
 Mulliken charges:
               1
     1  N   -0.241295
     2  C    0.048161
     3  C   -0.033792
     4  C   -0.082769
     5  C   -0.111449
     6  C   -0.070779
     7  C   -0.045967
     8  C   -0.012330
     9  C   -0.122651
    10  C   -0.086114
    11  C   -0.085426
    12  C   -0.193540
    13  N   -0.283228
    14  C    0.035366
    15  H    0.061518
    16  H    0.052119
    17  H    0.069963
    18  H    0.051748
    19  H    0.050465
 Sum of Mulliken charges =  -1.00000
 Mulliken charges with hydrogens summed into heavy atoms:
               1
     1  N   -0.241295
     2  C    0.048161
     3  C   -0.033792
     4  C   -0.021251
     5  C   -0.059330
     6  C   -0.000816
     7  C   -0.045967
     8  C   -0.012330
     9  C   -0.070903
    10  C   -0.035650
    11  C   -0.085426
    12  C   -0.193540
    13  N   -0.283228
    14  C    0.035366
 Electronic spatial extent (au):  <R**2>=           2935.8619
 Charge=             -1.0000 electrons
 Dipole moment (field-independent basis, Debye):
    X=              5.8666    Y=              0.6337    Z=             -0.0020  Tot=              5.9007
 Quadrupole moment (field-independent basis, Debye-Ang):
   XX=           -130.8405   YY=            -86.3840   ZZ=            -74.1603
   XY=             13.8681   XZ=              0.0061   YZ=              0.0036
 Traceless Quadrupole moment (field-independent basis, Debye-Ang):
   XX=            -33.7123   YY=             10.7443   ZZ=             22.9679
   XY=             13.8681   XZ=              0.0061   YZ=              0.0036
 Octapole moment (field-independent basis, Debye-Ang**2):
  XXX=            165.9113  YYY=             13.3352  ZZZ=              0.0054  XYY=            -25.4504
  XXY=             40.4289  XXZ=             -0.0554  XZZ=             -1.7383  YZZ=             -2.6309
  YYZ=             -0.0095  XYZ=              0.0072
 Hexadecapole moment (field-independent basis, Debye-Ang**3):
 XXXX=          -3950.7958 YYYY=          -1030.4353 ZZZZ=            -58.3681 XXXY=            119.4779
 XXXZ=              0.2134 YYYX=            110.0423 YYYZ=              0.0244 ZZZX=             -0.0068
 ZZZY=             -0.0065 XXYY=           -748.6169 XXZZ=           -458.2960 YYZZ=           -177.3242
 XXYZ=              0.0560 YYXZ=             -0.0244 ZZXY=             -7.7513
 N-N= 6.916143873069D+02 E-N=-2.705705542045D+03  KE= 5.547799101841D+02
 1\1\GINC-N053\FOpt\RB3LYP\STO-3G\C12H5N2(1-)\R2532\15-Jun-2021\0\\#N B
 3LYP/STO-3G OPT\\1Naph\\-1,1\N,1.0119808202,-0.049574533,0.0457603773\
 C,2.2120554187,-0.029370082,0.0466523809\C,3.6744122927,0.0080333032,0
 .0476430382\C,4.3199234005,1.2570969662,0.0484352802\C,5.736614179,1.3
 26941681,0.0493998375\C,6.4888568084,0.1493293701,0.0493960859\C,5.905
 1324405,-1.1656602555,0.0484713631\C,4.4437007174,-1.2278939396,0.0477
 967699\C,3.8201490129,-2.5198261886,0.0473857986\C,4.6240446582,-3.650
 6190828,0.0472695917\C,6.0631831169,-3.5340530101,0.0473227233\C,6.843
 5490837,-2.3259928319,0.048177293\N,7.3991853275,-5.853879765,0.045534
 5865\C,6.7962895864,-4.8166097202,0.046299863\H,3.7201514137,2.1773717
 537,0.0482750778\H,6.2278922145,2.3080899873,0.0500761265\H,7.58799062
 02,0.2047465526,0.0500376457\H,2.726333521,-2.595612224,0.0472255841\H
 ,4.1522953677,-4.6460779814,0.0471005768\\Version=ES64L-G09RevD.01\Sta
 te=1-A\HF=-562.5225071\RMSD=5.223e-09\RMSF=1.965e-05\Dipole=-1.0526549
 ,2.0691533,0.0013451\Quadrupole=-11.322654,-5.7534464,17.0761004,19.27
 87221,-0.0035035,-0.0076708\PG=C01 [X(C12H5N2)]\\@


 Sometimes the fool who rushes in gets the job done.
                                    -- Al Bernstein
 Job cpu time:       0 days  0 hours  4 minutes  8.0 seconds.
 File lengths (MBytes):  RWF=      5 Int=      0 D2E=      0 Chk=      2 Scr=      1
 Normal termination of Gaussian 09 at Tue Jun 15 11:17:58 2021.
