 Entering Gaussian System, Link 0=/usr/local/apps//g09/g09
 Input=32.com
 Output=32.out
 Initial command:
 /usr/local/apps//g09/l1.exe "/tmp/bnp.472687.sequoia/Gau-18589.inp" -scrdir="/tmp/bnp.472687.sequoia/"
 Entering Link 1 = /usr/local/apps//g09/l1.exe PID=     18590.
  
 Copyright (c) 1988,1990,1992,1993,1995,1998,2003,2009,2013,
            Gaussian, Inc.  All Rights Reserved.
  
 This is part of the Gaussian(R) 09 program.  It is based on
 the Gaussian(R) 03 system (copyright 2003, Gaussian, Inc.),
 the Gaussian(R) 98 system (copyright 1998, Gaussian, Inc.),
 the Gaussian(R) 94 system (copyright 1995, Gaussian, Inc.),
 the Gaussian 92(TM) system (copyright 1992, Gaussian, Inc.),
 the Gaussian 90(TM) system (copyright 1990, Gaussian, Inc.),
 the Gaussian 88(TM) system (copyright 1988, Gaussian, Inc.),
 the Gaussian 86(TM) system (copyright 1986, Carnegie Mellon
 University), and the Gaussian 82(TM) system (copyright 1983,
 Carnegie Mellon University). Gaussian is a federally registered
 trademark of Gaussian, Inc.
  
 This software contains proprietary and confidential information,
 including trade secrets, belonging to Gaussian, Inc.
  
 This software is provided under written license and may be
 used, copied, transmitted, or stored only in accord with that
 written license.
  
 The following legend is applicable only to US Government
 contracts under FAR:
  
                    RESTRICTED RIGHTS LEGEND
  
 Use, reproduction and disclosure by the US Government is
 subject to restrictions as set forth in subparagraphs (a)
 and (c) of the Commercial Computer Software - Restricted
 Rights clause in FAR 52.227-19.
  
 Gaussian, Inc.
 340 Quinnipiac St., Bldg. 40, Wallingford CT 06492
  
  
 ---------------------------------------------------------------
 Warning -- This program may not be used in any manner that
 competes with the business of Gaussian, Inc. or will provide
 assistance to any competitor of Gaussian, Inc.  The licensee
 of this program is prohibited from giving any competitor of
 Gaussian, Inc. access to this program.  By using this program,
 the user acknowledges that Gaussian, Inc. is engaged in the
 business of creating and licensing software in the field of
 computational chemistry and represents and warrants to the
 licensee that it is not a competitor of Gaussian, Inc. and that
 it will not use this program in any manner prohibited above.
 ---------------------------------------------------------------
  

 Cite this work as:
 Gaussian 09, Revision D.01,
 M. J. Frisch, G. W. Trucks, H. B. Schlegel, G. E. Scuseria, 
 M. A. Robb, J. R. Cheeseman, G. Scalmani, V. Barone, B. Mennucci, 
 G. A. Petersson, H. Nakatsuji, M. Caricato, X. Li, H. P. Hratchian, 
 A. F. Izmaylov, J. Bloino, G. Zheng, J. L. Sonnenberg, M. Hada, 
 M. Ehara, K. Toyota, R. Fukuda, J. Hasegawa, M. Ishida, T. Nakajima, 
 Y. Honda, O. Kitao, H. Nakai, T. Vreven, J. A. Montgomery, Jr., 
 J. E. Peralta, F. Ogliaro, M. Bearpark, J. J. Heyd, E. Brothers, 
 K. N. Kudin, V. N. Staroverov, T. Keith, R. Kobayashi, J. Normand, 
 K. Raghavachari, A. Rendell, J. C. Burant, S. S. Iyengar, J. Tomasi, 
 M. Cossi, N. Rega, J. M. Millam, M. Klene, J. E. Knox, J. B. Cross, 
 V. Bakken, C. Adamo, J. Jaramillo, R. Gomperts, R. E. Stratmann, 
 O. Yazyev, A. J. Austin, R. Cammi, C. Pomelli, J. W. Ochterski, 
 R. L. Martin, K. Morokuma, V. G. Zakrzewski, G. A. Voth, 
 P. Salvador, J. J. Dannenberg, S. Dapprich, A. D. Daniels, 
 O. Farkas, J. B. Foresman, J. V. Ortiz, J. Cioslowski, 
 and D. J. Fox, Gaussian, Inc., Wallingford CT, 2013.
 
 ******************************************
 Gaussian 09:  ES64L-G09RevD.01 24-Apr-2013
                15-Jun-2021 
 ******************************************
 -------------------
 #N B3LYP/STO-3G OPT
 -------------------
 1/14=-1,18=20,19=15,26=3,38=1/1,3;
 2/9=110,12=2,17=6,18=5,40=1/2;
 3/6=3,11=2,16=1,25=1,30=1,71=1,74=-5/1,2,3;
 4//1;
 5/5=2,38=5/2;
 6/7=2,8=2,9=2,10=2,28=1/1;
 7//1,2,3,16;
 1/14=-1,18=20,19=15,26=3/3(2);
 2/9=110/2;
 99//99;
 2/9=110/2;
 3/6=3,11=2,16=1,25=1,30=1,71=1,74=-5/1,2,3;
 4/5=5,16=3,69=1/1;
 5/5=2,38=5/2;
 7//1,2,3,16;
 1/14=-1,18=20,19=15,26=3/3(-5);
 2/9=110/2;
 6/7=2,8=2,9=2,10=2,19=2,28=1/1;
 99/9=1/99;
 -----
 1Naph
 -----
 Symbolic Z-matrix:
 Charge = -1 Multiplicity = 1
 N                     1.27362  -0.77105   2.48486 
 C                     2.4189   -0.87423   2.30514 
 C                     3.83215  -1.00854   2.08838 
 C                     4.58026  -1.75075   3.0177 
 C                     5.95092  -1.91445   2.84967 
 C                     6.59779  -1.26911   1.8003 
 C                     5.87838  -0.52877   0.86033 
 C                     4.46804  -0.42578   0.9598 
 C                     3.78607   0.23356  -0.09038 
 C                     4.4753    0.75965  -1.18824 
 C                     5.86884   0.70088  -1.23637 
 C                     6.56789   0.06839  -0.19907 
 N                     7.16821   1.65334  -3.26411 
 C                     6.58372   1.23175  -2.35708 
 H                     4.08951  -2.22273   3.87039 
 H                     6.52314  -2.54646   3.52359 
 H                     2.70003   0.30843  -0.08908 
 H                     3.91487   1.20853  -2.0074 
 H                     7.65525   0.01687  -0.24002 
 

 GradGradGradGradGradGradGradGradGradGradGradGradGradGradGradGradGradGrad
 Berny optimization.
 Initialization pass.
                           ----------------------------
                           !    Initial Parameters    !
                           ! (Angstroms and Degrees)  !
 --------------------------                            --------------------------
 ! Name  Definition              Value          Derivative Info.                !
 --------------------------------------------------------------------------------
 ! R1    R(1,2)                  1.1639         estimate D2E/DX2                !
 ! R2    R(2,3)                  1.4361         estimate D2E/DX2                !
 ! R3    R(3,4)                  1.4051         estimate D2E/DX2                !
 ! R4    R(3,8)                  1.4204         estimate D2E/DX2                !
 ! R5    R(4,5)                  1.3906         estimate D2E/DX2                !
 ! R6    R(4,15)                 1.0912         estimate D2E/DX2                !
 ! R7    R(5,6)                  1.3914         estimate D2E/DX2                !
 ! R8    R(5,16)                 1.0868         estimate D2E/DX2                !
 ! R9    R(6,7)                  1.3961         estimate D2E/DX2                !
 ! R10   R(7,8)                  1.4176         estimate D2E/DX2                !
 ! R11   R(7,12)                 1.398          estimate D2E/DX2                !
 ! R12   R(8,9)                  1.4152         estimate D2E/DX2                !
 ! R13   R(9,10)                 1.399          estimate D2E/DX2                !
 ! R14   R(9,17)                 1.0886         estimate D2E/DX2                !
 ! R15   R(10,11)                1.3956         estimate D2E/DX2                !
 ! R16   R(10,18)                1.0893         estimate D2E/DX2                !
 ! R17   R(11,12)                1.4017         estimate D2E/DX2                !
 ! R18   R(11,14)                1.4314         estimate D2E/DX2                !
 ! R19   R(12,19)                1.0893         estimate D2E/DX2                !
 ! R20   R(13,14)                1.1585         estimate D2E/DX2                !
 ! A1    A(2,3,4)              118.2651         estimate D2E/DX2                !
 ! A2    A(2,3,8)              121.474          estimate D2E/DX2                !
 ! A3    A(4,3,8)              120.2565         estimate D2E/DX2                !
 ! A4    A(3,4,5)              120.4692         estimate D2E/DX2                !
 ! A5    A(3,4,15)             120.3895         estimate D2E/DX2                !
 ! A6    A(5,4,15)             119.1305         estimate D2E/DX2                !
 ! A7    A(4,5,6)              119.6541         estimate D2E/DX2                !
 ! A8    A(4,5,16)             120.832          estimate D2E/DX2                !
 ! A9    A(6,5,16)             119.5123         estimate D2E/DX2                !
 ! A10   A(5,6,7)              120.94           estimate D2E/DX2                !
 ! A11   A(6,7,8)              120.2607         estimate D2E/DX2                !
 ! A12   A(6,7,12)             118.8533         estimate D2E/DX2                !
 ! A13   A(8,7,12)             120.8529         estimate D2E/DX2                !
 ! A14   A(3,8,7)              118.1203         estimate D2E/DX2                !
 ! A15   A(3,8,9)              124.404          estimate D2E/DX2                !
 ! A16   A(7,8,9)              117.4655         estimate D2E/DX2                !
 ! A17   A(8,9,10)             121.3428         estimate D2E/DX2                !
 ! A18   A(8,9,17)             120.7916         estimate D2E/DX2                !
 ! A19   A(10,9,17)            117.8124         estimate D2E/DX2                !
 ! A20   A(9,10,11)            120.2099         estimate D2E/DX2                !
 ! A21   A(9,10,18)            119.4482         estimate D2E/DX2                !
 ! A22   A(11,10,18)           120.3405         estimate D2E/DX2                !
 ! A23   A(10,11,12)           119.4369         estimate D2E/DX2                !
 ! A24   A(10,11,14)           120.6688         estimate D2E/DX2                !
 ! A25   A(12,11,14)           119.8475         estimate D2E/DX2                !
 ! A26   A(7,12,11)            120.5027         estimate D2E/DX2                !
 ! A27   A(7,12,19)            120.0398         estimate D2E/DX2                !
 ! A28   A(11,12,19)           119.4283         estimate D2E/DX2                !
 ! A29   L(1,2,3,17,-1)        180.3061         estimate D2E/DX2                !
 ! A30   L(11,14,13,19,-1)     179.63           estimate D2E/DX2                !
 ! A31   L(1,2,3,17,-2)        180.1579         estimate D2E/DX2                !
 ! A32   L(11,14,13,19,-2)     179.5947         estimate D2E/DX2                !
 ! D1    D(2,3,4,5)            179.7494         estimate D2E/DX2                !
 ! D2    D(2,3,4,15)             0.9553         estimate D2E/DX2                !
 ! D3    D(8,3,4,5)              0.5076         estimate D2E/DX2                !
 ! D4    D(8,3,4,15)          -178.2865         estimate D2E/DX2                !
 ! D5    D(2,3,8,7)            176.0075         estimate D2E/DX2                !
 ! D6    D(2,3,8,9)             -5.1794         estimate D2E/DX2                !
 ! D7    D(4,3,8,7)             -4.7755         estimate D2E/DX2                !
 ! D8    D(4,3,8,9)            174.0376         estimate D2E/DX2                !
 ! D9    D(3,4,5,6)              4.0324         estimate D2E/DX2                !
 ! D10   D(3,4,5,16)          -175.5103         estimate D2E/DX2                !
 ! D11   D(15,4,5,6)          -177.1584         estimate D2E/DX2                !
 ! D12   D(15,4,5,16)            3.2989         estimate D2E/DX2                !
 ! D13   D(4,5,6,7)             -4.2205         estimate D2E/DX2                !
 ! D14   D(16,5,6,7)           175.3283         estimate D2E/DX2                !
 ! D15   D(5,6,7,8)             -0.1679         estimate D2E/DX2                !
 ! D16   D(5,6,7,12)          -178.0937         estimate D2E/DX2                !
 ! D17   D(6,7,8,3)              4.61           estimate D2E/DX2                !
 ! D18   D(6,7,8,9)           -174.2863         estimate D2E/DX2                !
 ! D19   D(12,7,8,3)          -177.5062         estimate D2E/DX2                !
 ! D20   D(12,7,8,9)             3.5975         estimate D2E/DX2                !
 ! D21   D(6,7,12,11)          173.3507         estimate D2E/DX2                !
 ! D22   D(6,7,12,19)           -4.6729         estimate D2E/DX2                !
 ! D23   D(8,7,12,11)           -4.5623         estimate D2E/DX2                !
 ! D24   D(8,7,12,19)          177.414          estimate D2E/DX2                !
 ! D25   D(3,8,9,10)          -178.5737         estimate D2E/DX2                !
 ! D26   D(3,8,9,17)            -1.2856         estimate D2E/DX2                !
 ! D27   D(7,8,9,10)             0.2465         estimate D2E/DX2                !
 ! D28   D(7,8,9,17)           177.5346         estimate D2E/DX2                !
 ! D29   D(8,9,10,11)           -3.1803         estimate D2E/DX2                !
 ! D30   D(8,9,10,18)          176.3821         estimate D2E/DX2                !
 ! D31   D(17,9,10,11)         179.4535         estimate D2E/DX2                !
 ! D32   D(17,9,10,18)          -0.9841         estimate D2E/DX2                !
 ! D33   D(9,10,11,12)           2.2644         estimate D2E/DX2                !
 ! D34   D(9,10,11,14)         179.7733         estimate D2E/DX2                !
 ! D35   D(18,10,11,12)       -177.2941         estimate D2E/DX2                !
 ! D36   D(18,10,11,14)          0.2148         estimate D2E/DX2                !
 ! D37   D(10,11,12,7)           1.5663         estimate D2E/DX2                !
 ! D38   D(10,11,12,19)        179.602          estimate D2E/DX2                !
 ! D39   D(14,11,12,7)        -175.9634         estimate D2E/DX2                !
 ! D40   D(14,11,12,19)          2.0723         estimate D2E/DX2                !
 --------------------------------------------------------------------------------
 Trust Radius=3.00D-01 FncErr=1.00D-07 GrdErr=1.00D-06
 Number of steps in this run=    102 maximum allowed number of steps=    114.
 GradGradGradGradGradGradGradGradGradGradGradGradGradGradGradGradGradGrad

                          Input orientation:                          
 ---------------------------------------------------------------------
 Center     Atomic      Atomic             Coordinates (Angstroms)
 Number     Number       Type             X           Y           Z
 ---------------------------------------------------------------------
      1          7           0        1.273620   -0.771050    2.484860
      2          6           0        2.418900   -0.874230    2.305140
      3          6           0        3.832150   -1.008540    2.088380
      4          6           0        4.580260   -1.750750    3.017700
      5          6           0        5.950920   -1.914450    2.849670
      6          6           0        6.597790   -1.269110    1.800300
      7          6           0        5.878380   -0.528770    0.860330
      8          6           0        4.468040   -0.425780    0.959800
      9          6           0        3.786070    0.233560   -0.090380
     10          6           0        4.475300    0.759650   -1.188240
     11          6           0        5.868840    0.700880   -1.236370
     12          6           0        6.567890    0.068390   -0.199070
     13          7           0        7.168210    1.653340   -3.264110
     14          6           0        6.583720    1.231750   -2.357080
     15          1           0        4.089510   -2.222730    3.870390
     16          1           0        6.523140   -2.546460    3.523590
     17          1           0        2.700030    0.308430   -0.089080
     18          1           0        3.914870    1.208530   -2.007400
     19          1           0        7.655250    0.016870   -0.240020
 ---------------------------------------------------------------------
                    Distance matrix (angstroms):
                    1          2          3          4          5
     1  N    0.000000
     2  C    1.163878   0.000000
     3  C    2.599937   1.436071   0.000000
     4  C    3.489642   2.438751   1.405055   0.000000
     5  C    4.828829   3.722061   2.426813   1.390590   0.000000
     6  C    5.391055   4.227755   2.792786   2.405092   1.391432
     7  C    4.888927   3.764946   2.434203   2.798678   2.425458
     8  C    3.556591   2.491992   1.420443   2.450121   2.826071
     9  C    3.735439   2.972351   2.508372   3.772053   4.236085
    10  C    5.107393   4.370589   3.778409   4.899291   5.062903
    11  C    6.093454   5.188964   4.257251   5.076223   4.852052
    12  C    5.994784   4.936975   3.725115   4.196135   3.688783
    13  N    8.583386   7.743455   6.845732   7.599109   7.182564
    14  C    7.460077   6.596755   5.687895   6.465092   6.116311
    15  H    3.457789   2.656953   2.171647   1.091183   2.145170
    16  H    5.638129   4.596277   3.415619   2.159598   1.086757
    17  H    3.134500   2.685146   2.785218   4.174634   4.913831
    18  H    5.574526   5.017352   4.658074   5.869558   6.122878
    19  H    6.983623   5.889929   4.592277   4.815889   4.022552
                    6          7          8          9         10
     6  C    0.000000
     7  C    1.396137   0.000000
     8  C    2.439976   1.417590   0.000000
     9  C    3.706543   2.421313   1.415164   0.000000
    10  C    4.189535   2.797374   2.453441   1.398966   0.000000
    11  C    3.692370   2.430696   2.838092   2.422728   1.395609
    12  C    2.405677   1.397982   2.448786   2.788838   2.415622
    13  N    5.874891   4.841102   5.427253   4.850485   3.515634
    14  C    4.851629   3.734791   4.269098   3.736463   2.456522
    15  H    3.389120   3.889732   3.441489   4.670453   5.884995
    16  H    2.146375   3.402902   3.910721   5.317974   6.109448
    17  H    4.609872   3.421139   2.182905   1.088618   2.136197
    18  H    5.275921   3.885545   3.432381   2.154558   1.089311
    19  H    2.633414   2.160037   3.434212   3.878131   3.400430
                   11         12         13         14         15
    11  C    0.000000
    12  C    1.401680   0.000000
    13  N    2.589840   3.502416   0.000000
    14  C    1.431386   2.451666   1.158477   0.000000
    15  H    6.147561   5.286975   8.683513   7.545588   0.000000
    16  H    5.799185   4.549466   8.007953   6.990052   2.479441
    17  H    3.392882   3.876862   5.643955   4.591230   4.900493
    18  H    2.161063   3.407124   3.515878   2.691761   6.808264
    19  H    2.156813   1.089350   3.472803   2.665718   5.884367
                   16         17         18         19
    16  H    0.000000
    17  H    5.984810   0.000000
    18  H    7.175993   2.442533   0.000000
    19  H    4.692238   4.966085   4.305128   0.000000
 Stoichiometry    C12H5N2(1-)
 Framework group  C1[X(C12H5N2)]
 Deg. of freedom    51
 Full point group                 C1      NOp   1
 Largest Abelian subgroup         C1      NOp   1
 Largest concise Abelian subgroup C1      NOp   1
                         Standard orientation:                         
 ---------------------------------------------------------------------
 Center     Atomic      Atomic             Coordinates (Angstroms)
 Number     Number       Type             X           Y           Z
 ---------------------------------------------------------------------
      1          7           0       -3.482428   -2.286884   -0.067596
      2          6           0       -2.819251   -1.330758   -0.042460
      3          6           0       -2.007535   -0.146598   -0.008078
      4          6           0       -2.652224    1.100694    0.044996
      5          6           0       -1.910861    2.276497    0.085107
      6          6           0       -0.524017    2.219582   -0.012395
      7          6           0        0.142350    0.993751   -0.062299
      8          6           0       -0.588967   -0.219529   -0.010457
      9          6           0        0.149864   -1.424474    0.059729
     10          6           0        1.548637   -1.420102    0.082510
     11          6           0        2.249051   -0.218316   -0.030864
     12          6           0        1.539144    0.987036   -0.119539
     13          7           0        4.838037   -0.180707    0.023967
     14          6           0        3.680090   -0.201930   -0.003899
     15          1           0       -3.741474    1.158236    0.075060
     16          1           0       -2.400421    3.240015    0.199148
     17          1           0       -0.356470   -2.384658    0.141962
     18          1           0        2.085338   -2.361131    0.196596
     19          1           0        2.086093    1.925556   -0.201462
 ---------------------------------------------------------------------
 Rotational constants (GHZ):      1.5208792      0.4646613      0.3562747
 Standard basis: STO-3G (5D, 7F)
 There are    75 symmetry adapted cartesian basis functions of A   symmetry.
 There are    75 symmetry adapted basis functions of A   symmetry.
    75 basis functions,   225 primitive gaussians,    75 cartesian basis functions
    46 alpha electrons       46 beta electrons
       nuclear repulsion energy       705.4172092357 Hartrees.
 NAtoms=   19 NActive=   19 NUniq=   19 SFac= 1.00D+00 NAtFMM=   60 NAOKFM=F Big=F
 Integral buffers will be    131072 words long.
 Raffenetti 2 integral format.
 Two-electron integral symmetry is turned on.
 One-electron integrals computed using PRISM.
 NBasis=    75 RedAO= T EigKep=  1.54D-01  NBF=    75
 NBsUse=    75 1.00D-06 EigRej= -1.00D+00 NBFU=    75
 ExpMin= 1.69D-01 ExpMax= 9.91D+01 ExpMxC= 9.91D+01 IAcc=1 IRadAn=         1 AccDes= 0.00D+00
 Harris functional with IExCor=  402 and IRadAn=       1 diagonalized for initial guess.
 HarFok:  IExCor=  402 AccDes= 0.00D+00 IRadAn=         1 IDoV= 1 UseB2=F ITyADJ=14
 ICtDFT=  3500011 ScaDFX=  1.000000  1.000000  1.000000  1.000000
 FoFCou: FMM=F IPFlag=           0 FMFlag=      100000 FMFlg1=           0
         NFxFlg=           0 DoJE=T BraDBF=F KetDBF=T FulRan=T
         wScrn=  0.000000 ICntrl=     500 IOpCl=  0 I1Cent=   200000004 NGrid=           0
         NMat0=    1 NMatS0=      1 NMatT0=    0 NMatD0=    1 NMtDS0=    0 NMtDT0=    0
 Petite list used in FoFCou.
 Keep R1 ints in memory in canonical form, NReq=4993994.
 Requested convergence on RMS density matrix=1.00D-08 within 128 cycles.
 Requested convergence on MAX density matrix=1.00D-06.
 Requested convergence on             energy=1.00D-06.
 No special actions if energy rises.
 Integral accuracy reduced to 1.0D-05 until final iterations.
 Initial convergence to 1.0D-05 achieved.  Increase integral accuracy.
 SCF Done:  E(RB3LYP) =  -562.483448328     A.U. after   23 cycles
            NFock= 23  Conv=0.53D-08     -V/T= 2.0128

 **********************************************************************

            Population analysis using the SCF density.

 **********************************************************************

 Orbital symmetries:
       Occupied  (A) (A) (A) (A) (A) (A) (A) (A) (A) (A) (A) (A)
                 (A) (A) (A) (A) (A) (A) (A) (A) (A) (A) (A) (A)
                 (A) (A) (A) (A) (A) (A) (A) (A) (A) (A) (A) (A)
                 (A) (A) (A) (A) (A) (A) (A) (A) (A) (A)
       Virtual   (A) (A) (A) (A) (A) (A) (A) (A) (A) (A) (A) (A)
                 (A) (A) (A) (A) (A) (A) (A) (A) (A) (A) (A) (A)
                 (A) (A) (A) (A) (A)
 The electronic state is 1-A.
 Alpha  occ. eigenvalues --  -13.98907 -13.96424  -9.89706  -9.89631  -9.87840
 Alpha  occ. eigenvalues --   -9.87556  -9.87048  -9.86770  -9.86606  -9.86305
 Alpha  occ. eigenvalues --   -9.85056  -9.83584  -9.79878  -9.66223  -0.74379
 Alpha  occ. eigenvalues --   -0.72211  -0.68201  -0.63324  -0.57704  -0.55988
 Alpha  occ. eigenvalues --   -0.52216  -0.45101  -0.43198  -0.40002  -0.36042
 Alpha  occ. eigenvalues --   -0.33131  -0.31179  -0.26628  -0.25215  -0.23350
 Alpha  occ. eigenvalues --   -0.21652  -0.21259  -0.20571  -0.18749  -0.17857
 Alpha  occ. eigenvalues --   -0.15410  -0.14914  -0.14689  -0.13197  -0.13001
 Alpha  occ. eigenvalues --   -0.11107  -0.10466  -0.07109  -0.04287   0.01713
 Alpha  occ. eigenvalues --    0.13820
 Alpha virt. eigenvalues --    0.18432   0.20454   0.25602   0.27598   0.29221
 Alpha virt. eigenvalues --    0.30506   0.37211   0.38946   0.45784   0.47782
 Alpha virt. eigenvalues --    0.48742   0.53200   0.55679   0.57400   0.59090
 Alpha virt. eigenvalues --    0.63250   0.64001   0.65733   0.70400   0.72286
 Alpha virt. eigenvalues --    0.74789   0.77644   0.82389   0.86556   0.87471
 Alpha virt. eigenvalues --    0.97952   1.00063   1.15039   1.16094
          Condensed to atoms (all electrons):
               1          2          3          4          5          6
     1  N    6.603856   0.683049  -0.011994  -0.000195  -0.000001   0.000000
     2  C    0.683049   4.903835   0.431623  -0.032763   0.000973   0.000014
     3  C   -0.011994   0.431623   4.799995   0.497573  -0.032149  -0.012842
     4  C   -0.000195  -0.032763   0.497573   4.849446   0.488493  -0.028525
     5  C   -0.000001   0.000973  -0.032149   0.488493   4.883333   0.484476
     6  C    0.000000   0.000014  -0.012842  -0.028525   0.484476   5.418573
     7  C   -0.000001   0.000878  -0.032589  -0.011888  -0.030019   0.449016
     8  C   -0.000047  -0.029034   0.477833  -0.027770  -0.011330  -0.029680
     9  C   -0.000079  -0.004277  -0.029164   0.000776   0.000049   0.001137
    10  C    0.000000   0.000014   0.000805  -0.000008   0.000001   0.000038
    11  C    0.000000   0.000000   0.000035   0.000000  -0.000016   0.001091
    12  C    0.000000  -0.000008   0.000928  -0.000017   0.001407  -0.041697
    13  N    0.000000   0.000000   0.000000   0.000000   0.000000   0.000000
    14  C    0.000000   0.000000   0.000000   0.000000   0.000000  -0.000009
    15  H    0.000046  -0.003923  -0.026433   0.381229  -0.026025   0.001724
    16  H    0.000000  -0.000021   0.001362  -0.033231   0.388045  -0.035528
    17  H   -0.000095   0.001310  -0.003282   0.000013  -0.000002  -0.000030
    18  H    0.000000   0.000000  -0.000017   0.000000   0.000000   0.000001
    19  H    0.000000   0.000000  -0.000017   0.000000   0.000041  -0.002309
               7          8          9         10         11         12
     1  N   -0.000001  -0.000047  -0.000079   0.000000   0.000000   0.000000
     2  C    0.000878  -0.029034  -0.004277   0.000014   0.000000  -0.000008
     3  C   -0.032589   0.477833  -0.029164   0.000805   0.000035   0.000928
     4  C   -0.011888  -0.027770   0.000776  -0.000008   0.000000  -0.000017
     5  C   -0.030019  -0.011330   0.000049   0.000001  -0.000016   0.001407
     6  C    0.449016  -0.029680   0.001137   0.000038   0.001091  -0.041697
     7  C    4.825054   0.449792  -0.028662  -0.010961  -0.029858   0.487805
     8  C    0.449792   4.802595   0.471851  -0.027585  -0.008877  -0.035871
     9  C   -0.028662   0.471851   4.839484   0.523419  -0.030786  -0.011138
    10  C   -0.010961  -0.027585   0.523419   4.819833   0.481413  -0.030855
    11  C   -0.029858  -0.008877  -0.030786   0.481413   4.774589   0.494353
    12  C    0.487805  -0.035871  -0.011138  -0.030855   0.494353   4.835463
    13  N   -0.000001   0.000000  -0.000001  -0.000106  -0.011706  -0.000191
    14  C    0.001003   0.000004   0.001017  -0.031813   0.430287  -0.031170
    15  H    0.000089   0.001293  -0.000015   0.000000   0.000000   0.000002
    16  H    0.002058  -0.000040   0.000001   0.000000   0.000000  -0.000006
    17  H    0.001415  -0.024688   0.386786  -0.027923   0.001506   0.000014
    18  H    0.000041   0.001375  -0.025479   0.390397  -0.025933   0.001420
    19  H   -0.024088   0.001500   0.000032   0.001415  -0.026649   0.388847
              13         14         15         16         17         18
     1  N    0.000000   0.000000   0.000046   0.000000  -0.000095   0.000000
     2  C    0.000000   0.000000  -0.003923  -0.000021   0.001310   0.000000
     3  C    0.000000   0.000000  -0.026433   0.001362  -0.003282  -0.000017
     4  C    0.000000   0.000000   0.381229  -0.033231   0.000013   0.000000
     5  C    0.000000   0.000000  -0.026025   0.388045  -0.000002   0.000000
     6  C    0.000000  -0.000009   0.001724  -0.035528  -0.000030   0.000001
     7  C   -0.000001   0.001003   0.000089   0.002058   0.001415   0.000041
     8  C    0.000000   0.000004   0.001293  -0.000040  -0.024688   0.001375
     9  C   -0.000001   0.001017  -0.000015   0.000001   0.386786  -0.025479
    10  C   -0.000106  -0.031813   0.000000   0.000000  -0.027923   0.390397
    11  C   -0.011706   0.430287   0.000000   0.000000   0.001506  -0.025933
    12  C   -0.000191  -0.031170   0.000002  -0.000006   0.000014   0.001420
    13  N    6.582709   0.687868   0.000000   0.000000   0.000000   0.000067
    14  C    0.687868   4.894402   0.000000   0.000000  -0.000021  -0.003701
    15  H    0.000000   0.000000   0.627307  -0.003080  -0.000002   0.000000
    16  H    0.000000   0.000000  -0.003080   0.653624   0.000000   0.000000
    17  H    0.000000  -0.000021  -0.000002   0.000000   0.607021  -0.004209
    18  H    0.000067  -0.003701   0.000000   0.000000  -0.004209   0.603384
    19  H    0.000061  -0.003762   0.000000  -0.000005   0.000002  -0.000039
              19
     1  N    0.000000
     2  C    0.000000
     3  C   -0.000017
     4  C    0.000000
     5  C    0.000041
     6  C   -0.002309
     7  C   -0.024088
     8  C    0.001500
     9  C    0.000032
    10  C    0.001415
    11  C   -0.026649
    12  C    0.388847
    13  N    0.000061
    14  C   -0.003762
    15  H    0.000000
    16  H   -0.000005
    17  H    0.000002
    18  H   -0.000039
    19  H    0.585749
 Mulliken charges:
               1
     1  N   -0.274540
     2  C    0.048331
     3  C   -0.061665
     4  C   -0.083135
     5  C   -0.147275
     6  C   -0.205450
     7  C   -0.049082
     8  C   -0.011320
     9  C   -0.094952
    10  C   -0.088085
    11  C   -0.049450
    12  C   -0.059284
    13  N   -0.258700
    14  C    0.055897
    15  H    0.047788
    16  H    0.026821
    17  H    0.062184
    18  H    0.062695
    19  H    0.079221
 Sum of Mulliken charges =  -1.00000
 Mulliken charges with hydrogens summed into heavy atoms:
               1
     1  N   -0.274540
     2  C    0.048331
     3  C   -0.061665
     4  C   -0.035347
     5  C   -0.120453
     6  C   -0.205450
     7  C   -0.049082
     8  C   -0.011320
     9  C   -0.032768
    10  C   -0.025390
    11  C   -0.049450
    12  C    0.019937
    13  N   -0.258700
    14  C    0.055897
 Electronic spatial extent (au):  <R**2>=           2849.1436
 Charge=             -1.0000 electrons
 Dipole moment (field-independent basis, Debye):
    X=              0.0752    Y=             -1.6174    Z=              0.2454  Tot=              1.6376
 Quadrupole moment (field-independent basis, Debye-Ang):
   XX=           -123.2226   YY=            -94.5183   ZZ=            -73.9106
   XY=             -8.0799   XZ=             -0.4139   YZ=             -0.1257
 Traceless Quadrupole moment (field-independent basis, Debye-Ang):
   XX=            -26.0054   YY=              2.6989   ZZ=             23.3066
   XY=             -8.0799   XZ=             -0.4139   YZ=             -0.1257
 Octapole moment (field-independent basis, Debye-Ang**2):
  XXX=           -104.9774  YYY=            -24.9872  ZZZ=             -0.1153  XYY=             44.4632
  XXY=             48.4762  XXZ=             -0.0001  XZZ=              1.7615  YZZ=             -2.1042
  YYZ=              2.3169  XYZ=              0.7062
 Hexadecapole moment (field-independent basis, Debye-Ang**3):
 XXXX=          -3790.8538 YYYY=          -1065.8623 ZZZZ=            -60.1842 XXXY=           -129.4958
 XXXZ=            -11.1455 YYYX=            -62.7677 YYYZ=              0.3374 ZZZX=              1.1015
 ZZZY=              0.4520 XXYY=           -709.8998 XXZZ=           -450.4683 YYZZ=           -164.5416
 XXYZ=             -4.8972 YYXZ=             -2.6075 ZZXY=              7.0682
 N-N= 7.054172092357D+02 E-N=-2.733069999429D+03  KE= 5.553601893772D+02
 Calling FoFJK, ICntrl=      2127 FMM=F ISym2X=0 I1Cent= 0 IOpClX= 0 NMat=1 NMatS=1 NMatT=0.
 ***** Axes restored to original set *****
 -------------------------------------------------------------------
 Center     Atomic                   Forces (Hartrees/Bohr)
 Number     Number              X              Y              Z
 -------------------------------------------------------------------
      1        7          -0.093638951    0.008269819    0.015410802
      2        6           0.077277120   -0.005447150   -0.016399294
      3        6          -0.011380731   -0.004298356    0.010524105
      4        6          -0.004139214   -0.011117966    0.016592725
      5        6          -0.006440356    0.006745009   -0.022350390
      6        6           0.089425150   -0.018083352    0.021279123
      7        6          -0.008889783   -0.010457338    0.016268027
      8        6          -0.019899145    0.013118016   -0.011786494
      9        6          -0.007839022    0.012979858   -0.027310907
     10        6          -0.041050516   -0.004281529    0.018028067
     11        6           0.025358169   -0.003907000   -0.000258688
     12        6           0.004632566    0.015141572   -0.017337037
     13        7           0.055589835    0.040681627   -0.086133374
     14        6          -0.044677791   -0.031260300    0.067114045
     15        1          -0.010883717    0.002331174    0.007108883
     16        1           0.000935911   -0.009415192    0.011400076
     17        1          -0.009044965   -0.001667518    0.001424549
     18        1          -0.002498447    0.004160089   -0.004949558
     19        1           0.007163885   -0.003491464    0.001375340
 -------------------------------------------------------------------
 Cartesian Forces:  Max     0.093638951 RMS     0.029909877

 GradGradGradGradGradGradGradGradGradGradGradGradGradGradGradGradGradGrad
 Berny optimization.
 FormGI is forming the generalized inverse of G from B-inverse, IUseBI=4.
 Internal  Forces:  Max     0.110289761 RMS     0.020678772
 Search for a local minimum.
 Step number   1 out of a maximum of  102
 All quantities printed in internal units (Hartrees-Bohrs-Radians)
 Mixed Optimization -- RFO/linear search
 Second derivative matrix not updated -- first step.
 ITU=  0
     Eigenvalues ---    0.01612   0.01612   0.01882   0.01896   0.01926
     Eigenvalues ---    0.01973   0.02005   0.02059   0.02071   0.02090
     Eigenvalues ---    0.02111   0.02112   0.02114   0.02128   0.02186
     Eigenvalues ---    0.02210   0.04887   0.04887   0.15984   0.15991
     Eigenvalues ---    0.15997   0.16000   0.16000   0.22395   0.22437
     Eigenvalues ---    0.23478   0.24437   0.24594   0.24958   0.24976
     Eigenvalues ---    0.24998   0.34676   0.34888   0.34892   0.34973
     Eigenvalues ---    0.35190   0.38184   0.40129   0.40636   0.40791
     Eigenvalues ---    0.41010   0.43132   0.43862   0.44671   0.45670
     Eigenvalues ---    0.45787   0.45859   0.46006   0.46949   1.25289
     Eigenvalues ---    1.28795
 RFO step:  Lambda=-5.86350336D-02 EMin= 1.61160685D-02
 Linear search not attempted -- first point.
 Maximum step size (   0.300) exceeded in Quadratic search.
    -- Step size scaled by   0.877
 Iteration  1 RMS(Cart)=  0.04971424 RMS(Int)=  0.00124447
 Iteration  2 RMS(Cart)=  0.00204604 RMS(Int)=  0.00043884
 Iteration  3 RMS(Cart)=  0.00000108 RMS(Int)=  0.00043883
 Iteration  4 RMS(Cart)=  0.00000000 RMS(Int)=  0.00043883
 Variable       Old X    -DE/DX   Delta X   Delta X   Delta X     New X
                                 (Linear)    (Quad)   (Total)
    R1        2.19941   0.09526   0.00000   0.06369   0.06369   2.26310
    R2        2.71378   0.01622   0.00000   0.03092   0.03092   2.74470
    R3        2.65517   0.01507   0.00000   0.02346   0.02313   2.67830
    R4        2.68425   0.01880   0.00000   0.03364   0.03313   2.71738
    R5        2.62783   0.03366   0.00000   0.05355   0.05373   2.68156
    R6        2.06204   0.00944   0.00000   0.02042   0.02042   2.08246
    R7        2.62942   0.02652   0.00000   0.04433   0.04487   2.67429
    R8        2.05367   0.01304   0.00000   0.02785   0.02785   2.08152
    R9        2.63832   0.05924   0.00000   0.10219   0.10251   2.74082
   R10        2.67886   0.04839   0.00000   0.09103   0.09099   2.76984
   R11        2.64180   0.03463   0.00000   0.06041   0.06067   2.70247
   R12        2.67427   0.02558   0.00000   0.04525   0.04513   2.71941
   R13        2.64366  -0.00845   0.00000  -0.01617  -0.01643   2.62723
   R14        2.05719   0.00891   0.00000   0.01914   0.01914   2.07633
   R15        2.63732   0.04244   0.00000   0.06989   0.06974   2.70706
   R16        2.05850   0.00672   0.00000   0.01446   0.01446   2.07296
   R17        2.64879   0.01761   0.00000   0.03059   0.03070   2.67949
   R18        2.70493   0.02384   0.00000   0.04480   0.04480   2.74973
   R19        2.05857   0.00726   0.00000   0.01563   0.01563   2.07420
   R20        2.18921   0.11029   0.00000   0.07182   0.07182   2.26103
    A1        2.06412   0.00636   0.00000   0.02127   0.02179   2.08591
    A2        2.12012  -0.00192   0.00000  -0.00222  -0.00171   2.11841
    A3        2.09887  -0.00444   0.00000  -0.01904  -0.02008   2.07879
    A4        2.10258   0.00636   0.00000   0.00980   0.00948   2.11206
    A5        2.10119  -0.01173   0.00000  -0.03909  -0.03896   2.06224
    A6        2.07922   0.00537   0.00000   0.02941   0.02958   2.10880
    A7        2.08836   0.02479   0.00000   0.07343   0.07381   2.16217
    A8        2.10892  -0.01959   0.00000  -0.06552  -0.06592   2.04300
    A9        2.08588  -0.00517   0.00000  -0.00769  -0.00812   2.07776
   A10        2.11080  -0.04406   0.00000  -0.11976  -0.11835   1.99245
   A11        2.09894   0.02101   0.00000   0.06366   0.06358   2.16252
   A12        2.07438   0.00028   0.00000  -0.00542  -0.00564   2.06874
   A13        2.10928  -0.02129   0.00000  -0.05819  -0.05789   2.05139
   A14        2.06159  -0.00385   0.00000  -0.01039  -0.01112   2.05047
   A15        2.17126  -0.00754   0.00000  -0.02324  -0.02285   2.14841
   A16        2.05016   0.01139   0.00000   0.03365   0.03398   2.08414
   A17        2.11783  -0.00043   0.00000  -0.00519  -0.00567   2.11216
   A18        2.10821  -0.00217   0.00000  -0.00689  -0.00667   2.10154
   A19        2.05621   0.00264   0.00000   0.01243   0.01265   2.06886
   A20        2.09806   0.00411   0.00000   0.00725   0.00677   2.10482
   A21        2.08476  -0.00097   0.00000   0.00069   0.00093   2.08569
   A22        2.10034  -0.00313   0.00000  -0.00795  -0.00771   2.09263
   A23        2.08457  -0.00025   0.00000  -0.00201  -0.00211   2.08246
   A24        2.10607  -0.00157   0.00000  -0.00373  -0.00371   2.10236
   A25        2.09173   0.00186   0.00000   0.00610   0.00614   2.09787
   A26        2.10317   0.00650   0.00000   0.02492   0.02525   2.12842
   A27        2.09509  -0.00638   0.00000  -0.02503  -0.02521   2.06988
   A28        2.08442  -0.00014   0.00000  -0.00012  -0.00030   2.08412
   A29        3.14694   0.00156   0.00000   0.01825   0.01825   3.16519
   A30        3.13513   0.00026   0.00000   0.00215   0.00215   3.13728
   A31        3.14435  -0.00038   0.00000  -0.00441  -0.00441   3.13993
   A32        3.13452   0.00103   0.00000   0.00837   0.00837   3.14289
    D1        3.13722  -0.00039   0.00000  -0.00910  -0.00869   3.12853
    D2        0.01667  -0.00113   0.00000  -0.01631  -0.01568   0.00099
    D3        0.00886  -0.00022   0.00000  -0.00986  -0.00885   0.00001
    D4       -3.11169  -0.00095   0.00000  -0.01708  -0.01585  -3.12753
    D5        3.07191  -0.00002   0.00000  -0.00537  -0.00465   3.06726
    D6       -0.09040  -0.00004   0.00000  -0.00353  -0.00323  -0.09363
    D7       -0.08335  -0.00014   0.00000  -0.00441  -0.00430  -0.08765
    D8        3.03753  -0.00016   0.00000  -0.00256  -0.00288   3.03465
    D9        0.07038   0.00383   0.00000   0.03352   0.03453   0.10491
   D10       -3.06323   0.00046   0.00000   0.00127   0.00199  -3.06124
   D11       -3.09200   0.00435   0.00000   0.03983   0.04089  -3.05111
   D12        0.05758   0.00098   0.00000   0.00758   0.00834   0.06592
   D13       -0.07366  -0.00256   0.00000  -0.03123  -0.03113  -0.10479
   D14        3.06006   0.00069   0.00000   0.00032   0.00177   3.06182
   D15       -0.00293   0.00082   0.00000   0.01229   0.01182   0.00888
   D16       -3.10832   0.00147   0.00000   0.01234   0.01165  -3.09667
   D17        0.08046   0.00048   0.00000   0.00527   0.00475   0.08521
   D18       -3.04187   0.00071   0.00000   0.00420   0.00405  -3.03782
   D19       -3.09807   0.00029   0.00000   0.00639   0.00598  -3.09209
   D20        0.06279   0.00052   0.00000   0.00532   0.00527   0.06806
   D21        3.02554   0.00054   0.00000   0.00288   0.00304   3.02858
   D22       -0.08156   0.00131   0.00000   0.01087   0.01089  -0.07067
   D23       -0.07963   0.00028   0.00000   0.00031   0.00035  -0.07928
   D24        3.09646   0.00105   0.00000   0.00831   0.00820   3.10465
   D25       -3.11670  -0.00147   0.00000  -0.01619  -0.01585  -3.13255
   D26       -0.02244  -0.00051   0.00000  -0.00709  -0.00689  -0.02933
   D27        0.00430  -0.00165   0.00000  -0.01484  -0.01491  -0.01061
   D28        3.09856  -0.00069   0.00000  -0.00573  -0.00595   3.09261
   D29       -0.05551   0.00138   0.00000   0.01647   0.01646  -0.03905
   D30        3.07845   0.00143   0.00000   0.01421   0.01411   3.09256
   D31        3.13205   0.00057   0.00000   0.00812   0.00815   3.14021
   D32       -0.01718   0.00062   0.00000   0.00585   0.00581  -0.01136
   D33        0.03952  -0.00064   0.00000  -0.01021  -0.01035   0.02917
   D34        3.13764   0.00042   0.00000  -0.00046  -0.00059   3.13705
   D35       -3.09437  -0.00070   0.00000  -0.00796  -0.00803  -3.10240
   D36        0.00375   0.00035   0.00000   0.00179   0.00173   0.00548
   D37        0.02734   0.00092   0.00000   0.00474   0.00468   0.03201
   D38        3.13465   0.00003   0.00000  -0.00370  -0.00372   3.13093
   D39       -3.07114  -0.00004   0.00000  -0.00469  -0.00481  -3.07595
   D40        0.03617  -0.00093   0.00000  -0.01313  -0.01320   0.02296
         Item               Value     Threshold  Converged?
 Maximum Force            0.110290     0.000450     NO 
 RMS     Force            0.020679     0.000300     NO 
 Maximum Displacement     0.248123     0.001800     NO 
 RMS     Displacement     0.048753     0.001200     NO 
 Predicted change in Energy=-3.169755D-02
 GradGradGradGradGradGradGradGradGradGradGradGradGradGradGradGradGradGrad

                          Input orientation:                          
 ---------------------------------------------------------------------
 Center     Atomic      Atomic             Coordinates (Angstroms)
 Number     Number       Type             X           Y           Z
 ---------------------------------------------------------------------
      1          7           0        1.207082   -0.750197    2.494293
      2          6           0        2.383730   -0.862550    2.301730
      3          6           0        3.814187   -1.012446    2.099528
      4          6           0        4.577170   -1.756731    3.033668
      5          6           0        5.973847   -1.936591    2.858846
      6          6           0        6.729091   -1.307064    1.840992
      7          6           0        5.932861   -0.555992    0.889407
      8          6           0        4.473895   -0.434306    0.960095
      9          6           0        3.767391    0.226407   -0.105348
     10          6           0        4.448495    0.761207   -1.192976
     11          6           0        5.878681    0.708539   -1.255299
     12          6           0        6.596131    0.072034   -0.210960
     13          7           0        7.176053    1.720726   -3.334518
     14          6           0        6.588123    1.264207   -2.397765
     15          1           0        4.053493   -2.204230    3.893838
     16          1           0        6.488982   -2.590402    3.580272
     17          1           0        2.670373    0.286469   -0.091841
     18          1           0        3.881893    1.218539   -2.013427
     19          1           0        7.691413    0.021911   -0.262126
 ---------------------------------------------------------------------
                    Distance matrix (angstroms):
                    1          2          3          4          5
     1  N    0.000000
     2  C    1.197582   0.000000
     3  C    2.649832   1.452433   0.000000
     4  C    3.558304   2.479209   1.417294   0.000000
     5  C    4.925696   3.788521   2.468753   1.419021   0.000000
     6  C    5.588335   4.392271   2.941141   2.501088   1.415176
     7  C    4.994633   3.832097   2.482242   2.806693   2.405498
     8  C    3.622929   2.520351   1.437974   2.461540   2.848152
     9  C    3.777178   2.982342   2.529510   3.800263   4.281758
    10  C    5.136833   4.371820   3.793254   4.921493   5.101184
    11  C    6.165322   5.228332   4.298696   5.115342   4.892029
    12  C    6.085747   4.993134   3.775403   4.236531   3.720956
    13  N    8.701099   7.836260   6.949909   7.707185   7.292395
    14  C    7.546235   6.654718   5.753566   6.532263   6.185014
    15  H    3.489268   2.668899   2.167294   1.101991   2.197863
    16  H    5.697735   4.633924   3.440506   2.156110   1.101494
    17  H    3.147060   2.670503   2.792416   4.192773   4.955955
    18  H    5.599114   5.019562   4.679560   5.899900   6.170103
    19  H    7.088056   5.960464   4.656199   4.870763   4.065246
                    6          7          8          9         10
     6  C    0.000000
     7  C    1.450382   0.000000
     8  C    2.573635   1.465737   0.000000
     9  C    3.861533   2.508175   1.439047   0.000000
    10  C    4.322480   2.876573   2.462846   1.390270   0.000000
    11  C    3.791157   2.490328   2.861379   2.452017   1.432512
    12  C    2.475903   1.430088   2.476214   2.834917   2.460012
    13  N    6.012753   4.956865   5.512669   4.927424   3.598118
    14  C    4.959675   3.814183   4.316264   3.780044   2.506498
    15  H    3.489686   3.908365   3.451987   4.688638   5.901315
    16  H    2.174788   3.418896   3.946474   5.378221   6.179059
    17  H    4.769527   3.509475   2.208796   1.098744   2.144666
    18  H    5.416804   3.972641   3.453144   2.153650   1.096965
    19  H    2.667460   2.180024   3.471942   3.932473   3.453919
                   11         12         13         14         15
    11  C    0.000000
    12  C    1.417927   0.000000
    13  N    2.651575   3.579261   0.000000
    14  C    1.455096   2.490674   1.196486   0.000000
    15  H    6.191053   5.338141   8.797999   7.618311   0.000000
    16  H    5.885425   4.633949   8.177543   7.113703   2.485772
    17  H    3.438753   3.933415   5.733516   4.649949   4.899208
    18  H    2.195911   3.454049   3.584545   2.733767   6.829391
    19  H    2.178037   1.097621   3.548403   2.705828   5.955014
                   16         17         18         19
    16  H    0.000000
    17  H    6.028481   0.000000
    18  H    7.252201   2.455409   0.000000
    19  H    4.799379   5.030888   4.360209   0.000000
 Stoichiometry    C12H5N2(1-)
 Framework group  C1[X(C12H5N2)]
 Deg. of freedom    51
 Full point group                 C1      NOp   1
 Largest Abelian subgroup         C1      NOp   1
 Largest concise Abelian subgroup C1      NOp   1
                         Standard orientation:                         
 ---------------------------------------------------------------------
 Center     Atomic      Atomic             Coordinates (Angstroms)
 Number     Number       Type             X           Y           Z
 ---------------------------------------------------------------------
      1          7           0       -3.519722   -2.350778   -0.082186
      2          6           0       -2.834970   -1.368913   -0.046701
      3          6           0       -2.032525   -0.158874   -0.008635
      4          6           0       -2.674801    1.103576    0.040599
      5          6           0       -1.922005    2.305243    0.094581
      6          6           0       -0.512415    2.358956   -0.018965
      7          6           0        0.129718    1.059131   -0.060529
      8          6           0       -0.595591   -0.213287   -0.003395
      9          6           0        0.143790   -1.445179    0.077953
     10          6           0        1.534002   -1.446833    0.090491
     11          6           0        2.265693   -0.220762   -0.025574
     12          6           0        1.557591    1.004207   -0.118099
     13          7           0        4.917057   -0.224322    0.007669
     14          6           0        3.720655   -0.225485   -0.006426
     15          1           0       -3.776517    1.126536    0.049474
     16          1           0       -2.485466    3.244699    0.209578
     17          1           0       -0.383085   -2.405154    0.167896
     18          1           0        2.072101   -2.396481    0.199798
     19          1           0        2.116778    1.945412   -0.196923
 ---------------------------------------------------------------------
 Rotational constants (GHZ):      1.4380447      0.4545938      0.3457814
 Standard basis: STO-3G (5D, 7F)
 There are    75 symmetry adapted cartesian basis functions of A   symmetry.
 There are    75 symmetry adapted basis functions of A   symmetry.
    75 basis functions,   225 primitive gaussians,    75 cartesian basis functions
    46 alpha electrons       46 beta electrons
       nuclear repulsion energy       693.4005562799 Hartrees.
 NAtoms=   19 NActive=   19 NUniq=   19 SFac= 1.00D+00 NAtFMM=   60 NAOKFM=F Big=F
 Integral buffers will be    131072 words long.
 Raffenetti 2 integral format.
 Two-electron integral symmetry is turned on.
 One-electron integrals computed using PRISM.
 NBasis=    75 RedAO= T EigKep=  1.74D-01  NBF=    75
 NBsUse=    75 1.00D-06 EigRej= -1.00D+00 NBFU=    75
 Initial guess from the checkpoint file:  "/tmp/bnp.472687.sequoia/Gau-18590.chk"
 B after Tr=     0.000000    0.000000    0.000000
         Rot=    1.000000   -0.000165    0.000060    0.000648 Ang=  -0.08 deg.
 ExpMin= 1.69D-01 ExpMax= 9.91D+01 ExpMxC= 9.91D+01 IAcc=1 IRadAn=         1 AccDes= 0.00D+00
 Harris functional with IExCor=  402 and IRadAn=       1 diagonalized for initial guess.
 HarFok:  IExCor=  402 AccDes= 0.00D+00 IRadAn=         1 IDoV= 1 UseB2=F ITyADJ=14
 ICtDFT=  3500011 ScaDFX=  1.000000  1.000000  1.000000  1.000000
 FoFCou: FMM=F IPFlag=           0 FMFlag=      100000 FMFlg1=           0
         NFxFlg=           0 DoJE=T BraDBF=F KetDBF=T FulRan=T
         wScrn=  0.000000 ICntrl=     500 IOpCl=  0 I1Cent=   200000004 NGrid=           0
         NMat0=    1 NMatS0=      1 NMatT0=    0 NMatD0=    1 NMtDS0=    0 NMtDT0=    0
 Petite list used in FoFCou.
 Keep R1 ints in memory in canonical form, NReq=4993994.
 Requested convergence on RMS density matrix=1.00D-08 within 128 cycles.
 Requested convergence on MAX density matrix=1.00D-06.
 Requested convergence on             energy=1.00D-06.
 No special actions if energy rises.
 Integral accuracy reduced to 1.0D-05 until final iterations.
 Initial convergence to 1.0D-05 achieved.  Increase integral accuracy.
 SCF Done:  E(RB3LYP) =  -562.513859331     A.U. after   17 cycles
            NFock= 17  Conv=0.80D-08     -V/T= 2.0139
 Calling FoFJK, ICntrl=      2127 FMM=F ISym2X=0 I1Cent= 0 IOpClX= 0 NMat=1 NMatS=1 NMatT=0.
 ***** Axes restored to original set *****
 -------------------------------------------------------------------
 Center     Atomic                   Forces (Hartrees/Bohr)
 Number     Number              X              Y              Z
 -------------------------------------------------------------------
      1        7          -0.007509817    0.000777936    0.000954118
      2        6           0.005729308   -0.000422929   -0.001660480
      3        6          -0.003217412   -0.002046880    0.004168798
      4        6           0.005648926   -0.005310243    0.003958910
      5        6          -0.016890499    0.004597943   -0.005304868
      6        6           0.037846260   -0.004747571    0.003172606
      7        6          -0.016419518   -0.000940153    0.004723244
      8        6           0.001412903    0.004993923   -0.007606315
      9        6           0.001797898    0.002173072   -0.007109314
     10        6          -0.009929670   -0.001319878    0.005038736
     11        6           0.010049037   -0.004764140    0.005248137
     12        6          -0.008387173    0.005801858   -0.008587076
     13        7           0.004178054    0.003348626   -0.006922442
     14        6          -0.003457403   -0.001196430    0.004748799
     15        1          -0.001549809    0.001557454    0.000685790
     16        1          -0.001780100   -0.001238641    0.003058595
     17        1          -0.000481786   -0.001257578    0.002294961
     18        1           0.001244375    0.001649533   -0.001140804
     19        1           0.001716426   -0.001655902    0.000278606
 -------------------------------------------------------------------
 Cartesian Forces:  Max     0.037846260 RMS     0.007305333

 GradGradGradGradGradGradGradGradGradGradGradGradGradGradGradGradGradGrad
 Berny optimization.
 Using GEDIIS/GDIIS optimizer.
 FormGI is forming the generalized inverse of G from B-inverse, IUseBI=4.
 Internal  Forces:  Max     0.020007802 RMS     0.004262128
 Search for a local minimum.
 Step number   2 out of a maximum of  102
 All quantities printed in internal units (Hartrees-Bohrs-Radians)
 Mixed Optimization -- RFO/linear search
 Update second derivatives using D2CorX and points    1    2
 DE= -3.04D-02 DEPred=-3.17D-02 R= 9.59D-01
 TightC=F SS=  1.41D+00  RLast= 3.11D-01 DXNew= 5.0454D-01 9.3235D-01
 Trust test= 9.59D-01 RLast= 3.11D-01 DXMaxT set to 5.05D-01
 ITU=  1  0
 Use linear search instead of GDIIS.
     Eigenvalues ---    0.01612   0.01614   0.01883   0.01900   0.01928
     Eigenvalues ---    0.01972   0.02005   0.02056   0.02069   0.02090
     Eigenvalues ---    0.02111   0.02114   0.02118   0.02128   0.02209
     Eigenvalues ---    0.02220   0.04887   0.04888   0.15834   0.15987
     Eigenvalues ---    0.15993   0.15998   0.16085   0.21266   0.22440
     Eigenvalues ---    0.23112   0.23674   0.24572   0.24914   0.24985
     Eigenvalues ---    0.24999   0.34703   0.34882   0.34899   0.35007
     Eigenvalues ---    0.35232   0.38408   0.40173   0.40635   0.40836
     Eigenvalues ---    0.41157   0.42742   0.43655   0.44325   0.45372
     Eigenvalues ---    0.45828   0.45920   0.46512   0.50898   1.26410
     Eigenvalues ---    1.34583
 RFO step:  Lambda=-4.61720410D-03 EMin= 1.61160684D-02
 Quartic linear search produced a step of  0.28641.
 Iteration  1 RMS(Cart)=  0.04552499 RMS(Int)=  0.00114491
 Iteration  2 RMS(Cart)=  0.00201445 RMS(Int)=  0.00037732
 Iteration  3 RMS(Cart)=  0.00000101 RMS(Int)=  0.00037732
 Iteration  4 RMS(Cart)=  0.00000000 RMS(Int)=  0.00037732
 Variable       Old X    -DE/DX   Delta X   Delta X   Delta X     New X
                                 (Linear)    (Quad)   (Total)
    R1        2.26310   0.00761   0.01824  -0.00913   0.00911   2.27221
    R2        2.74470   0.00169   0.00886  -0.00313   0.00573   2.75043
    R3        2.67830   0.00027   0.00662  -0.00739  -0.00109   2.67721
    R4        2.71738   0.00316   0.00949  -0.00009   0.00889   2.72627
    R5        2.68156  -0.00117   0.01539  -0.01907  -0.00350   2.67806
    R6        2.08246   0.00064   0.00585  -0.00331   0.00254   2.08500
    R7        2.67429   0.01238   0.01285   0.02161   0.03496   2.70926
    R8        2.08152   0.00191   0.00798  -0.00083   0.00715   2.08867
    R9        2.74082   0.01879   0.02936   0.02546   0.05512   2.79595
   R10        2.76984   0.00246   0.02606  -0.01564   0.01033   2.78017
   R11        2.70247   0.00432   0.01738  -0.00443   0.01307   2.71554
   R12        2.71941   0.00162   0.01293  -0.00735   0.00551   2.72492
   R13        2.62723  -0.00469  -0.00471  -0.00872  -0.01355   2.61368
   R14        2.07633   0.00044   0.00548  -0.00369   0.00179   2.07812
   R15        2.70706   0.00580   0.01997  -0.00348   0.01642   2.72348
   R16        2.07296   0.00090   0.00414  -0.00073   0.00341   2.07637
   R17        2.67949  -0.00556   0.00879  -0.02418  -0.01534   2.66416
   R18        2.74973   0.00288   0.01283  -0.00332   0.00952   2.75925
   R19        2.07420   0.00178   0.00448   0.00213   0.00661   2.08081
   R20        2.26103   0.00875   0.02057  -0.01035   0.01022   2.27125
    A1        2.08591   0.00241   0.00624   0.00859   0.01529   2.10120
    A2        2.11841  -0.00065  -0.00049  -0.00020  -0.00023   2.11818
    A3        2.07879  -0.00176  -0.00575  -0.00822  -0.01498   2.06381
    A4        2.11206   0.00151   0.00272  -0.00172   0.00062   2.11268
    A5        2.06224  -0.00254  -0.01116  -0.00283  -0.01395   2.04829
    A6        2.10880   0.00104   0.00847   0.00485   0.01335   2.12215
    A7        2.16217   0.01134   0.02114   0.04052   0.06203   2.22420
    A8        2.04300  -0.00899  -0.01888  -0.03782  -0.05714   1.98586
    A9        2.07776  -0.00238  -0.00233  -0.00321  -0.00604   2.07172
   A10        1.99245  -0.02001  -0.03390  -0.06334  -0.09581   1.89664
   A11        2.16252   0.01000   0.01821   0.03670   0.05498   2.21750
   A12        2.06874  -0.00325  -0.00162  -0.01760  -0.01935   2.04939
   A13        2.05139  -0.00674  -0.01658  -0.01858  -0.03523   2.01616
   A14        2.05047  -0.00107  -0.00318  -0.00234  -0.00625   2.04423
   A15        2.14841  -0.00235  -0.00654  -0.00637  -0.01250   2.13591
   A16        2.08414   0.00342   0.00973   0.00898   0.01890   2.10305
   A17        2.11216   0.00045  -0.00162   0.00509   0.00284   2.11500
   A18        2.10154  -0.00292  -0.00191  -0.02022  -0.02225   2.07930
   A19        2.06886   0.00251   0.00362   0.01651   0.02001   2.08887
   A20        2.10482  -0.00146   0.00194  -0.01091  -0.00933   2.09549
   A21        2.08569   0.00275   0.00027   0.01994   0.02038   2.10607
   A22        2.09263  -0.00128  -0.00221  -0.00897  -0.01101   2.08162
   A23        2.08246  -0.00003  -0.00060  -0.00005  -0.00098   2.08148
   A24        2.10236  -0.00132  -0.00106  -0.00494  -0.00607   2.09629
   A25        2.09787   0.00137   0.00176   0.00585   0.00754   2.10541
   A26        2.12842   0.00443   0.00723   0.01842   0.02564   2.15406
   A27        2.06988  -0.00337  -0.00722  -0.01421  -0.02149   2.04839
   A28        2.08412  -0.00105  -0.00009  -0.00348  -0.00363   2.08049
   A29        3.16519  -0.00061   0.00523  -0.04759  -0.04237   3.12282
   A30        3.13728   0.00031   0.00061   0.00662   0.00723   3.14451
   A31        3.13993   0.00015  -0.00126   0.01176   0.01050   3.15043
   A32        3.14289  -0.00006   0.00240  -0.00452  -0.00212   3.14077
    D1        3.12853   0.00017  -0.00249   0.00220  -0.00019   3.12834
    D2        0.00099  -0.00039  -0.00449  -0.02223  -0.02629  -0.02529
    D3        0.00001   0.00012  -0.00254  -0.01157  -0.01369  -0.01368
    D4       -3.12753  -0.00045  -0.00454  -0.03601  -0.03979   3.11586
    D5        3.06726   0.00032  -0.00133   0.00640   0.00555   3.07282
    D6       -0.09363   0.00051  -0.00092   0.02297   0.02209  -0.07154
    D7       -0.08765   0.00040  -0.00123   0.02050   0.01931  -0.06834
    D8        3.03465   0.00059  -0.00083   0.03707   0.03585   3.07050
    D9        0.10491   0.00082   0.00989   0.00246   0.01274   0.11765
   D10       -3.06124  -0.00024   0.00057  -0.02207  -0.02105  -3.08229
   D11       -3.05111   0.00137   0.01171   0.02748   0.03973  -3.01138
   D12        0.06592   0.00032   0.00239   0.00295   0.00594   0.07186
   D13       -0.10479  -0.00018  -0.00892   0.00299  -0.00595  -0.11075
   D14        3.06182   0.00097   0.00051   0.02841   0.02990   3.09173
   D15        0.00888  -0.00013   0.00338   0.00367   0.00694   0.01582
   D16       -3.09667  -0.00026   0.00334  -0.01330  -0.01065  -3.10732
   D17        0.08521  -0.00038   0.00136  -0.01681  -0.01601   0.06920
   D18       -3.03782  -0.00050   0.00116  -0.03258  -0.03187  -3.06969
   D19       -3.09209  -0.00019   0.00171   0.00000   0.00155  -3.09054
   D20        0.06806  -0.00031   0.00151  -0.01577  -0.01431   0.05376
   D21        3.02858   0.00126   0.00087   0.05580   0.05638   3.08496
   D22       -0.07067   0.00093   0.00312   0.03545   0.03820  -0.03248
   D23       -0.07928   0.00080   0.00010   0.03876   0.03896  -0.04031
   D24        3.10465   0.00046   0.00235   0.01841   0.02078   3.12543
   D25       -3.13255  -0.00089  -0.00454  -0.04143  -0.04559   3.10505
   D26       -0.02933   0.00010  -0.00197   0.00164  -0.00067  -0.03000
   D27       -0.01061  -0.00075  -0.00427  -0.02468  -0.02879  -0.03940
   D28        3.09261   0.00024  -0.00170   0.01840   0.01613   3.10874
   D29       -0.03905   0.00095   0.00471   0.04176   0.04642   0.00737
   D30        3.09256   0.00111   0.00404   0.04853   0.05248  -3.13815
   D31        3.14021   0.00010   0.00234   0.00026   0.00217  -3.14081
   D32       -0.01136   0.00026   0.00166   0.00703   0.00823  -0.00314
   D33        0.02917  -0.00039  -0.00296  -0.01843  -0.02180   0.00738
   D34        3.13705   0.00034  -0.00017   0.01107   0.01043  -3.13571
   D35       -3.10240  -0.00057  -0.00230  -0.02539  -0.02795  -3.13035
   D36        0.00548   0.00016   0.00049   0.00410   0.00428   0.00975
   D37        0.03201  -0.00028   0.00134  -0.02236  -0.02133   0.01068
   D38        3.13093   0.00001  -0.00106  -0.00210  -0.00323   3.12770
   D39       -3.07595  -0.00095  -0.00138  -0.05157  -0.05346  -3.12941
   D40        0.02296  -0.00067  -0.00378  -0.03130  -0.03536  -0.01240
         Item               Value     Threshold  Converged?
 Maximum Force            0.020008     0.000450     NO 
 RMS     Force            0.004262     0.000300     NO 
 Maximum Displacement     0.151151     0.001800     NO 
 RMS     Displacement     0.045265     0.001200     NO 
 Predicted change in Energy=-3.482805D-03
 GradGradGradGradGradGradGradGradGradGradGradGradGradGradGradGradGradGrad

                          Input orientation:                          
 ---------------------------------------------------------------------
 Center     Atomic      Atomic             Coordinates (Angstroms)
 Number     Number       Type             X           Y           Z
 ---------------------------------------------------------------------
      1          7           0        1.190024   -0.739310    2.422648
      2          6           0        2.377543   -0.870615    2.287250
      3          6           0        3.811415   -1.028226    2.093479
      4          6           0        4.588092   -1.742704    3.038669
      5          6           0        5.982398   -1.918275    2.855770
      6          6           0        6.809077   -1.331675    1.841899
      7          6           0        5.943562   -0.605369    0.886683
      8          6           0        4.480027   -0.467082    0.944829
      9          6           0        3.765541    0.201612   -0.114236
     10          6           0        4.435459    0.768208   -1.183413
     11          6           0        5.872515    0.689160   -1.258829
     12          6           0        6.580466    0.022352   -0.238170
     13          7           0        7.161633    1.791098   -3.310721
     14          6           0        6.581314    1.293354   -2.383346
     15          1           0        4.066225   -2.144188    3.924003
     16          1           0        6.458639   -2.543403    3.632974
     17          1           0        2.668856    0.264957   -0.063349
     18          1           0        3.882772    1.278594   -1.984246
     19          1           0        7.677329   -0.048957   -0.303485
 ---------------------------------------------------------------------
                    Distance matrix (angstroms):
                    1          2          3          4          5
     1  N    0.000000
     2  C    1.202404   0.000000
     3  C    2.657727   1.455464   0.000000
     4  C    3.596269   2.492328   1.416718   0.000000
     5  C    4.954230   3.796812   2.467071   1.417168   0.000000
     6  C    5.679957   4.477656   3.023467   2.556164   1.433678
     7  C    4.997325   3.840369   2.486206   2.786014   2.366967
     8  C    3.616929   2.526929   1.442679   2.454192   2.831037
     9  C    3.735559   2.973776   2.527570   3.794438   4.269579
    10  C    5.080269   4.355027   3.788750   4.914667   5.091680
    11  C    6.125318   5.217509   4.293661   5.102176   4.872444
    12  C    6.059450   4.983944   3.769343   4.221688   3.700836
    13  N    8.656478   7.830040   6.955425   7.708802   7.292164
    14  C    7.503019   6.645970   5.753611   6.526011   6.174268
    15  H    3.535573   2.674434   2.158962   1.103336   2.205420
    16  H    5.698942   4.611349   3.416666   2.119732   1.105277
    17  H    3.061972   2.626728   2.762186   4.163735   4.926186
    18  H    5.544686   5.013032   4.685547   5.903846   6.168805
    19  H    7.070609   5.956069   4.652923   4.856146   4.043270
                    6          7          8          9         10
     6  C    0.000000
     7  C    1.479552   0.000000
     8  C    2.641350   1.471203   0.000000
     9  C    3.929445   2.529196   1.441964   0.000000
    10  C    4.381333   2.906266   2.461167   1.383098   0.000000
    11  C    3.817779   2.506806   2.851671   2.446863   1.441203
    12  C    2.492457   1.437002   2.459852   2.823348   2.459845
    13  N    6.035355   4.984471   5.513629   4.927213   3.606074
    14  C    4.979492   3.834705   4.311761   3.777477   2.514022
    15  H    3.538159   3.888145   3.443747   4.679803   5.891017
    16  H    2.190671   3.400499   3.930921   5.369308   6.185274
    17  H    4.829144   3.519052   2.198328   1.099691   2.151440
    18  H    5.478700   4.004798   3.461731   2.161151   1.098768
    19  H    2.646110   2.175325   3.457724   3.924370   3.457130
                   11         12         13         14         15
    11  C    0.000000
    12  C    1.409812   0.000000
    13  N    2.662021   3.592602   0.000000
    14  C    1.460131   2.493436   1.201893   0.000000
    15  H    6.176754   5.323438   8.798254   7.610848   0.000000
    16  H    5.892601   4.645826   8.215656   7.136656   2.442891
    17  H    3.445657   3.923023   5.749747   4.663401   4.863702
    18  H    2.198350   3.450286   3.573952   2.727935   6.830556
    19  H    2.171371   1.101118   3.563035   2.707188   5.941525
                   16         17         18         19
    16  H    0.000000
    17  H    5.992674   0.000000
    18  H    7.266080   2.488152   0.000000
    19  H    4.816967   5.024043   4.357294   0.000000
 Stoichiometry    C12H5N2(1-)
 Framework group  C1[X(C12H5N2)]
 Deg. of freedom    51
 Full point group                 C1      NOp   1
 Largest Abelian subgroup         C1      NOp   1
 Largest concise Abelian subgroup C1      NOp   1
                         Standard orientation:                         
 ---------------------------------------------------------------------
 Center     Atomic      Atomic             Coordinates (Angstroms)
 Number     Number       Type             X           Y           Z
 ---------------------------------------------------------------------
      1          7           0       -3.467072   -2.402576   -0.077852
      2          6           0       -2.831003   -1.382495   -0.052816
      3          6           0       -2.039126   -0.162137   -0.007741
      4          6           0       -2.674202    1.104179    0.006878
      5          6           0       -1.917313    2.300799    0.066737
      6          6           0       -0.492328    2.435692   -0.014814
      7          6           0        0.111590    1.085027   -0.022596
      8          6           0       -0.597354   -0.203303    0.022601
      9          6           0        0.138399   -1.441180    0.097353
     10          6           0        1.521349   -1.454274    0.081876
     11          6           0        2.254191   -0.216078   -0.001058
     12          6           0        1.545759    1.001541   -0.056719
     13          7           0        4.915732   -0.243406   -0.043539
     14          6           0        3.714069   -0.229167   -0.024887
     15          1           0       -3.776356    1.119261   -0.041905
     16          1           0       -2.534208    3.215582    0.131937
     17          1           0       -0.414499   -2.389603    0.161531
     18          1           0        2.073487   -2.402695    0.136022
     19          1           0        2.106772    1.947704   -0.106731
 ---------------------------------------------------------------------
 Rotational constants (GHZ):      1.4045799      0.4578768      0.3455597
 Standard basis: STO-3G (5D, 7F)
 There are    75 symmetry adapted cartesian basis functions of A   symmetry.
 There are    75 symmetry adapted basis functions of A   symmetry.
    75 basis functions,   225 primitive gaussians,    75 cartesian basis functions
    46 alpha electrons       46 beta electrons
       nuclear repulsion energy       691.9863698474 Hartrees.
 NAtoms=   19 NActive=   19 NUniq=   19 SFac= 1.00D+00 NAtFMM=   60 NAOKFM=F Big=F
 Integral buffers will be    131072 words long.
 Raffenetti 2 integral format.
 Two-electron integral symmetry is turned on.
 One-electron integrals computed using PRISM.
 NBasis=    75 RedAO= T EigKep=  1.76D-01  NBF=    75
 NBsUse=    75 1.00D-06 EigRej= -1.00D+00 NBFU=    75
 Initial guess from the checkpoint file:  "/tmp/bnp.472687.sequoia/Gau-18590.chk"
 B after Tr=     0.000000    0.000000    0.000000
         Rot=    1.000000    0.000082    0.000068   -0.000859 Ang=   0.10 deg.
 ExpMin= 1.69D-01 ExpMax= 9.91D+01 ExpMxC= 9.91D+01 IAcc=1 IRadAn=         1 AccDes= 0.00D+00
 Harris functional with IExCor=  402 and IRadAn=       1 diagonalized for initial guess.
 HarFok:  IExCor=  402 AccDes= 0.00D+00 IRadAn=         1 IDoV= 1 UseB2=F ITyADJ=14
 ICtDFT=  3500011 ScaDFX=  1.000000  1.000000  1.000000  1.000000
 FoFCou: FMM=F IPFlag=           0 FMFlag=      100000 FMFlg1=           0
         NFxFlg=           0 DoJE=T BraDBF=F KetDBF=T FulRan=T
         wScrn=  0.000000 ICntrl=     500 IOpCl=  0 I1Cent=   200000004 NGrid=           0
         NMat0=    1 NMatS0=      1 NMatT0=    0 NMatD0=    1 NMtDS0=    0 NMtDT0=    0
 Petite list used in FoFCou.
 Keep R1 ints in memory in canonical form, NReq=4993994.
 Requested convergence on RMS density matrix=1.00D-08 within 128 cycles.
 Requested convergence on MAX density matrix=1.00D-06.
 Requested convergence on             energy=1.00D-06.
 No special actions if energy rises.
 Integral accuracy reduced to 1.0D-05 until final iterations.
 Initial convergence to 1.0D-05 achieved.  Increase integral accuracy.
 SCF Done:  E(RB3LYP) =  -562.517553447     A.U. after   17 cycles
            NFock= 17  Conv=0.33D-08     -V/T= 2.0140
 Calling FoFJK, ICntrl=      2127 FMM=F ISym2X=0 I1Cent= 0 IOpClX= 0 NMat=1 NMatS=1 NMatT=0.
 ***** Axes restored to original set *****
 -------------------------------------------------------------------
 Center     Atomic                   Forces (Hartrees/Bohr)
 Number     Number              X              Y              Z
 -------------------------------------------------------------------
      1        7           0.003344085   -0.000693332    0.000959263
      2        6          -0.002224999    0.000916906   -0.002919857
      3        6          -0.002549745   -0.000145928    0.002232524
      4        6           0.001930618    0.000307383   -0.001406523
      5        6          -0.004968380   -0.001318889    0.007052124
      6        6           0.004924287   -0.002300918    0.000116547
      7        6          -0.008812241    0.004201822   -0.004558101
      8        6           0.003874897   -0.001409441   -0.000232723
      9        6           0.000664788    0.001411271    0.000452699
     10        6          -0.001267837    0.000561315   -0.001773794
     11        6           0.002381373   -0.000300762    0.001625880
     12        6           0.000446214    0.000377786   -0.001972706
     13        7          -0.002010953   -0.001694732    0.003281240
     14        6           0.001187291    0.001481027   -0.002993085
     15        1           0.001448066   -0.001117914   -0.000835902
     16        1           0.001037733    0.000547453   -0.000009878
     17        1           0.000558683   -0.000337040    0.000693458
     18        1           0.000520745   -0.000325997    0.000255259
     19        1          -0.000484622   -0.000160012    0.000033575
 -------------------------------------------------------------------
 Cartesian Forces:  Max     0.008812241 RMS     0.002444780

 GradGradGradGradGradGradGradGradGradGradGradGradGradGradGradGradGradGrad
 Berny optimization.
 Using GEDIIS/GDIIS optimizer.
 FormGI is forming the generalized inverse of G from B-inverse, IUseBI=4.
 Internal  Forces:  Max     0.006090267 RMS     0.001317251
 Search for a local minimum.
 Step number   3 out of a maximum of  102
 All quantities printed in internal units (Hartrees-Bohrs-Radians)
 Mixed Optimization -- RFO/linear search
 Update second derivatives using D2CorX and points    1    2    3
 DE= -3.69D-03 DEPred=-3.48D-03 R= 1.06D+00
 TightC=F SS=  1.41D+00  RLast= 2.51D-01 DXNew= 8.4853D-01 7.5279D-01
 Trust test= 1.06D+00 RLast= 2.51D-01 DXMaxT set to 7.53D-01
 ITU=  1  1  0
 Use linear search instead of GDIIS.
     Eigenvalues ---    0.01612   0.01618   0.01872   0.01891   0.01928
     Eigenvalues ---    0.01971   0.02017   0.02051   0.02072   0.02087
     Eigenvalues ---    0.02109   0.02113   0.02126   0.02141   0.02210
     Eigenvalues ---    0.02273   0.04886   0.04889   0.15526   0.15995
     Eigenvalues ---    0.15998   0.16011   0.16273   0.20720   0.22581
     Eigenvalues ---    0.22845   0.23609   0.24627   0.24931   0.25004
     Eigenvalues ---    0.25194   0.34713   0.34877   0.34911   0.35022
     Eigenvalues ---    0.35178   0.38109   0.39176   0.40248   0.40815
     Eigenvalues ---    0.41171   0.41699   0.43499   0.44098   0.45335
     Eigenvalues ---    0.45871   0.46066   0.46475   0.51449   1.26499
     Eigenvalues ---    1.38317
 RFO step:  Lambda=-1.14368645D-03 EMin= 1.61156632D-02
 Quartic linear search produced a step of -0.00680.
 Iteration  1 RMS(Cart)=  0.03916195 RMS(Int)=  0.00303952
 Iteration  2 RMS(Cart)=  0.00328692 RMS(Int)=  0.00005483
 Iteration  3 RMS(Cart)=  0.00001812 RMS(Int)=  0.00005387
 Iteration  4 RMS(Cart)=  0.00000000 RMS(Int)=  0.00005387
 Variable       Old X    -DE/DX   Delta X   Delta X   Delta X     New X
                                 (Linear)    (Quad)   (Total)
    R1        2.27221  -0.00327  -0.00006   0.00044   0.00038   2.27259
    R2        2.75043  -0.00134  -0.00004  -0.00160  -0.00163   2.74879
    R3        2.67721   0.00154   0.00001   0.00371   0.00371   2.68092
    R4        2.72627   0.00138  -0.00006   0.00487   0.00481   2.73108
    R5        2.67806  -0.00272   0.00002  -0.00424  -0.00422   2.67384
    R6        2.08500  -0.00095  -0.00002  -0.00171  -0.00173   2.08327
    R7        2.70926   0.00399  -0.00024   0.01423   0.01399   2.72325
    R8        2.08867   0.00013  -0.00005   0.00211   0.00206   2.09074
    R9        2.79595   0.00609  -0.00037   0.02292   0.02255   2.81850
   R10        2.78017  -0.00442  -0.00007  -0.00629  -0.00638   2.77379
   R11        2.71554   0.00081  -0.00009   0.00510   0.00500   2.72054
   R12        2.72492  -0.00002  -0.00004   0.00197   0.00192   2.72684
   R13        2.61368   0.00069   0.00009  -0.00055  -0.00044   2.61323
   R14        2.07812  -0.00054  -0.00001  -0.00069  -0.00070   2.07741
   R15        2.72348   0.00045  -0.00011   0.00528   0.00520   2.72867
   R16        2.07637  -0.00060  -0.00002  -0.00081  -0.00083   2.07554
   R17        2.66416  -0.00175   0.00010  -0.00455  -0.00443   2.65973
   R18        2.75925  -0.00071  -0.00006   0.00086   0.00079   2.76004
   R19        2.08081  -0.00047  -0.00004  -0.00004  -0.00008   2.08073
   R20        2.27125  -0.00420  -0.00007   0.00018   0.00011   2.27136
    A1        2.10120   0.00072  -0.00010   0.00574   0.00572   2.10692
    A2        2.11818  -0.00103   0.00000  -0.00373  -0.00365   2.11453
    A3        2.06381   0.00031   0.00010  -0.00201  -0.00207   2.06174
    A4        2.11268   0.00111   0.00000   0.00558   0.00541   2.11809
    A5        2.04829   0.00088   0.00009   0.00311   0.00329   2.05158
    A6        2.12215  -0.00199  -0.00009  -0.00871  -0.00872   2.11343
    A7        2.22420  -0.00155  -0.00042   0.00495   0.00430   2.22850
    A8        1.98586   0.00183   0.00039   0.00033   0.00072   1.98658
    A9        2.07172  -0.00025   0.00004  -0.00418  -0.00413   2.06759
   A10        1.89664   0.00039   0.00065  -0.01095  -0.01050   1.88614
   A11        2.21750  -0.00085  -0.00037   0.00636   0.00590   2.22341
   A12        2.04939  -0.00053   0.00013  -0.00472  -0.00448   2.04491
   A13        2.01616   0.00137   0.00024  -0.00153  -0.00133   2.01483
   A14        2.04423   0.00070   0.00004   0.00129   0.00124   2.04547
   A15        2.13591   0.00003   0.00009  -0.00169  -0.00149   2.13442
   A16        2.10305  -0.00073  -0.00013   0.00040   0.00025   2.10330
   A17        2.11500   0.00069  -0.00002   0.00339   0.00332   2.11832
   A18        2.07930  -0.00115   0.00015  -0.00944  -0.00927   2.07003
   A19        2.08887   0.00046  -0.00014   0.00608   0.00597   2.09484
   A20        2.09549  -0.00084   0.00006  -0.00385  -0.00378   2.09171
   A21        2.10607   0.00069  -0.00014   0.00561   0.00547   2.11153
   A22        2.08162   0.00014   0.00007  -0.00176  -0.00169   2.07994
   A23        2.08148  -0.00022   0.00001  -0.00043  -0.00042   2.08105
   A24        2.09629  -0.00062   0.00004  -0.00360  -0.00356   2.09273
   A25        2.10541   0.00084  -0.00005   0.00403   0.00398   2.10940
   A26        2.15406  -0.00026  -0.00017   0.00292   0.00268   2.15674
   A27        2.04839   0.00002   0.00015  -0.00356  -0.00339   2.04500
   A28        2.08049   0.00024   0.00002   0.00081   0.00085   2.08133
   A29        3.12282   0.00304   0.00029   0.16980   0.17009   3.29291
   A30        3.14451  -0.00004  -0.00005   0.00023   0.00018   3.14469
   A31        3.15043  -0.00069  -0.00007  -0.03870  -0.03877   3.11166
   A32        3.14077   0.00011   0.00001   0.00232   0.00234   3.14311
    D1        3.12834   0.00008   0.00000   0.00523   0.00524   3.13359
    D2       -0.02529   0.00013   0.00018   0.00390   0.00406  -0.02123
    D3       -0.01368   0.00011   0.00009   0.00502   0.00507  -0.00861
    D4        3.11586   0.00016   0.00027   0.00368   0.00389   3.11976
    D5        3.07282   0.00041  -0.00004   0.02387   0.02382   3.09663
    D6       -0.07154   0.00048  -0.00015   0.02845   0.02830  -0.04323
    D7       -0.06834   0.00038  -0.00013   0.02409   0.02398  -0.04435
    D8        3.07050   0.00045  -0.00024   0.02867   0.02847   3.09897
    D9        0.11765  -0.00111  -0.00009  -0.04177  -0.04194   0.07572
   D10       -3.08229  -0.00042   0.00014  -0.01926  -0.01915  -3.10144
   D11       -3.01138  -0.00119  -0.00027  -0.04047  -0.04080  -3.05218
   D12        0.07186  -0.00050  -0.00004  -0.01796  -0.01801   0.05385
   D13       -0.11075   0.00104   0.00004   0.03989   0.03987  -0.07088
   D14        3.09173   0.00026  -0.00020   0.01625   0.01600   3.10773
   D15        0.01582  -0.00019  -0.00005  -0.00623  -0.00623   0.00959
   D16       -3.10732  -0.00034   0.00007  -0.01398  -0.01387  -3.12119
   D17        0.06920  -0.00050   0.00011  -0.02432  -0.02416   0.04504
   D18       -3.06969  -0.00057   0.00022  -0.02881  -0.02856  -3.09825
   D19       -3.09054  -0.00036  -0.00001  -0.01672  -0.01667  -3.10721
   D20        0.05376  -0.00043   0.00010  -0.02121  -0.02107   0.03268
[...]
 ! D15   D(5,6,7,8)              0.0071         -DE/DX =    0.0                 !
 ! D16   D(5,6,7,12)           179.9989         -DE/DX =    0.0                 !
 ! D17   D(6,7,8,3)             -0.0152         -DE/DX =    0.0                 !
 ! D18   D(6,7,8,9)            179.9896         -DE/DX =    0.0                 !
 ! D19   D(12,7,8,3)           179.9929         -DE/DX =    0.0                 !
 ! D20   D(12,7,8,9)            -0.0024         -DE/DX =    0.0                 !
 ! D21   D(6,7,12,11)         -179.9921         -DE/DX =    0.0                 !
 ! D22   D(6,7,12,19)            0.0024         -DE/DX =    0.0                 !
 ! D23   D(8,7,12,11)            0.0007         -DE/DX =    0.0                 !
 ! D24   D(8,7,12,19)         -180.0048         -DE/DX =    0.0                 !
 ! D25   D(3,8,9,10)          -179.9951         -DE/DX =    0.0                 !
 ! D26   D(3,8,9,17)             0.0092         -DE/DX =    0.0                 !
 ! D27   D(7,8,9,10)            -0.0001         -DE/DX =    0.0                 !
 ! D28   D(7,8,9,17)          -179.9958         -DE/DX =    0.0                 !
 ! D29   D(8,9,10,11)            0.0043         -DE/DX =    0.0                 !
 ! D30   D(8,9,10,18)         -179.9951         -DE/DX =    0.0                 !
 ! D31   D(17,9,10,11)         179.9999         -DE/DX =    0.0                 !
 ! D32   D(17,9,10,18)           0.0005         -DE/DX =    0.0                 !
 ! D33   D(9,10,11,12)          -0.0058         -DE/DX =    0.0                 !
 ! D34   D(9,10,11,14)         179.9979         -DE/DX =    0.0                 !
 ! D35   D(18,10,11,12)        179.9936         -DE/DX =    0.0                 !
 ! D36   D(18,10,11,14)         -0.0027         -DE/DX =    0.0                 !
 ! D37   D(10,11,12,7)           0.0033         -DE/DX =    0.0                 !
 ! D38   D(10,11,12,19)       -179.9911         -DE/DX =    0.0                 !
 ! D39   D(14,11,12,7)        -180.0005         -DE/DX =    0.0                 !
 ! D40   D(14,11,12,19)          0.0051         -DE/DX =    0.0                 !
 --------------------------------------------------------------------------------
 GradGradGradGradGradGradGradGradGradGradGradGradGradGradGradGradGradGrad

                          Input orientation:                          
 ---------------------------------------------------------------------
 Center     Atomic      Atomic             Coordinates (Angstroms)
 Number     Number       Type             X           Y           Z
 ---------------------------------------------------------------------
      1          7           0        1.175124   -0.857545    2.381321
      2          6           0        2.364487   -0.939876    2.235670
      3          6           0        3.804200   -1.049829    2.076878
      4          6           0        4.584955   -1.742890    3.036284
      5          6           0        5.985748   -1.861358    2.900681
      6          6           0        6.813408   -1.338427    1.841513
      7          6           0        5.933960   -0.623756    0.869646
      8          6           0        4.482845   -0.461642    0.945574
      9          6           0        3.776665    0.262995   -0.083341
     10          6           0        4.443790    0.819283   -1.159467
     11          6           0        5.875803    0.679282   -1.267550
     12          6           0        6.574762   -0.025291   -0.269977
     13          7           0        7.151778    1.751717   -3.339876
     14          6           0        6.578184    1.266952   -2.403911
     15          1           0        4.060644   -2.189464    3.896958
     16          1           0        6.475261   -2.425088    3.715249
     17          1           0        2.685855    0.368987    0.000068
     18          1           0        3.898441    1.369104   -1.937749
     19          1           0        7.666980   -0.133624   -0.349561
 ---------------------------------------------------------------------
                    Distance matrix (angstroms):
                    1          2          3          4          5
     1  N    0.000000
     2  C    1.201073   0.000000
     3  C    2.653620   1.452611   0.000000
     4  C    3.583261   2.493250   1.417876   0.000000
     5  C    4.941607   3.795379   2.469085   1.412318   0.000000
     6  C    5.684443   4.484095   3.032164   2.560677   1.442329
     7  C    4.998634   3.834983   2.484920   2.786861   2.378958
     8  C    3.627551   2.525964   1.444428   2.454199   2.835554
     9  C    3.754756   2.969673   2.528005   3.795915   4.277535
    10  C    5.102265   4.352596   3.791646   4.918229   5.103750
    11  C    6.145932   5.217621   4.297274   5.104527   4.882733
    12  C    6.072736   4.984090   3.772721   4.223842   3.710950
    13  N    8.675295   7.826209   6.956734   7.710789   7.304689
    14  C    7.523629   6.644625   5.756729   6.528999   6.186760
    15  H    3.520993   2.682964   2.162689   1.102311   2.192315
    16  H    5.685772   4.614485   3.422012   2.121236   1.104960
    17  H    3.075233   2.610425   2.752612   4.157549   4.927199
    18  H    5.570349   5.010172   4.688000   5.907352   6.180868
    19  H    7.079970   5.953981   4.652752   4.853097   4.046686
                    6          7          8          9         10
     6  C    0.000000
     7  C    1.492886   0.000000
     8  C    2.646316   1.462116   0.000000
     9  C    3.935915   2.519610   1.443071   0.000000
    10  C    4.390522   2.901769   2.464445   1.382953   0.000000
    11  C    3.823157   2.503777   2.853061   2.445818   1.442894
    12  C    2.497934   1.437890   2.458472   2.819093   2.458767
    13  N    6.042373   4.984578   5.512462   4.920640   3.599558
    14  C    4.986678   3.834837   4.312486   3.773789   2.510913
    15  H    3.539325   3.889135   3.445909   4.683800   5.896337
    16  H    2.192273   3.411050   3.936489   5.379358   6.198037
    17  H    4.831447   3.505980   2.193878   1.099117   2.153514
    18  H    5.487311   3.999537   3.465070   2.162668   1.097922
    19  H    2.642147   2.174868   3.453069   3.919531   3.457301
                   11         12         13         14         15
    11  C    0.000000
    12  C    1.407167   0.000000
    13  N    2.659467   3.593742   0.000000
    14  C    1.459456   2.494710   1.200015   0.000000
    15  H    6.180343   5.326141   8.801123   7.614838   0.000000
    16  H    5.901250   4.653059   8.226674   7.147438   2.432880
    17  H    3.446579   3.918160   5.745575   4.662154   4.860192
    18  H    2.198859   3.447969   3.563223   2.721905   6.836192
    19  H    2.170676   1.100459   3.572384   2.714304   5.938438
                   16         17         18         19
    16  H    0.000000
    17  H    5.997418   0.000000
    18  H    7.279579   2.495142   0.000000
    19  H    4.815982   5.018612   4.356882   0.000000
 Stoichiometry    C12H5N2(1-)
 Framework group  C1[X(C12H5N2)]
 Deg. of freedom    51
 Full point group                 C1      NOp   1
 Largest Abelian subgroup         C1      NOp   1
 Largest concise Abelian subgroup C1      NOp   1
                         Standard orientation:                         
 ---------------------------------------------------------------------
 Center     Atomic      Atomic             Coordinates (Angstroms)
 Number     Number       Type             X           Y           Z
 ---------------------------------------------------------------------
      1          7           0       -3.487386   -2.391021    0.000093
      2          6           0       -2.823799   -1.389907    0.000183
      3          6           0       -2.038208   -0.168054    0.000022
      4          6           0       -2.674790    1.098886   -0.000006
      5          6           0       -1.929657    2.298644   -0.000129
      6          6           0       -0.494439    2.441696   -0.000059
      7          6           0        0.111990    1.077529    0.000041
      8          6           0       -0.594197   -0.202738   -0.000078
      9          6           0        0.145420   -1.441860   -0.000182
     10          6           0        1.528309   -1.455119   -0.000176
     11          6           0        2.258853   -0.210833    0.000029
     12          6           0        1.547977    1.003569    0.000098
     13          7           0        4.918109   -0.244304    0.000103
     14          6           0        3.718222   -0.226719    0.000081
     15          1           0       -3.776934    1.118046    0.000275
     16          1           0       -2.545355    3.216169   -0.000029
     17          1           0       -0.412154   -2.389050   -0.000340
     18          1           0        2.082951   -2.402645   -0.000336
     19          1           0        2.102344    1.954194    0.000105
 ---------------------------------------------------------------------
 Rotational constants (GHZ):      1.4086907      0.4566786      0.3448748

 **********************************************************************

            Population analysis using the SCF density.

 **********************************************************************

 Orbital symmetries:
       Occupied  (A) (A) (A) (A) (A) (A) (A) (A) (A) (A) (A) (A)
                 (A) (A) (A) (A) (A) (A) (A) (A) (A) (A) (A) (A)
                 (A) (A) (A) (A) (A) (A) (A) (A) (A) (A) (A) (A)
                 (A) (A) (A) (A) (A) (A) (A) (A) (A) (A)
       Virtual   (A) (A) (A) (A) (A) (A) (A) (A) (A) (A) (A) (A)
                 (A) (A) (A) (A) (A) (A) (A) (A) (A) (A) (A) (A)
                 (A) (A) (A) (A) (A)
 The electronic state is 1-A.
 Alpha  occ. eigenvalues --  -13.99006 -13.96421  -9.90016  -9.89581  -9.88104
 Alpha  occ. eigenvalues --   -9.87395  -9.87291  -9.87055  -9.86915  -9.86761
 Alpha  occ. eigenvalues --   -9.85425  -9.83222  -9.79603  -9.67720  -0.72635
 Alpha  occ. eigenvalues --   -0.70658  -0.66993  -0.62260  -0.57377  -0.54732
 Alpha  occ. eigenvalues --   -0.51731  -0.44212  -0.42488  -0.39965  -0.35397
 Alpha  occ. eigenvalues --   -0.32758  -0.30856  -0.26013  -0.25248  -0.23233
 Alpha  occ. eigenvalues --   -0.20702  -0.20449  -0.19632  -0.17687  -0.17264
 Alpha  occ. eigenvalues --   -0.15401  -0.13920  -0.13873  -0.13239  -0.12185
 Alpha  occ. eigenvalues --   -0.09841  -0.09222  -0.06884  -0.03446   0.01859
 Alpha  occ. eigenvalues --    0.10504
 Alpha virt. eigenvalues --    0.18098   0.19877   0.24655   0.25735   0.27544
 Alpha virt. eigenvalues --    0.29268   0.35111   0.37324   0.43254   0.45630
 Alpha virt. eigenvalues --    0.46211   0.51222   0.53565   0.54835   0.56015
 Alpha virt. eigenvalues --    0.59881   0.61754   0.62542   0.68009   0.68492
 Alpha virt. eigenvalues --    0.70679   0.74973   0.78130   0.81674   0.84274
 Alpha virt. eigenvalues --    0.90788   0.92863   1.06804   1.09099
          Condensed to atoms (all electrons):
               1          2          3          4          5          6
     1  N    6.617382   0.656849  -0.011446  -0.000120  -0.000001   0.000000
     2  C    0.656849   4.941438   0.427448  -0.028951   0.000791  -0.000004
     3  C   -0.011446   0.427448   4.816167   0.488672  -0.029813  -0.005840
     4  C   -0.000120  -0.028951   0.488672   4.851054   0.486195  -0.017482
     5  C   -0.000001   0.000791  -0.029813   0.486195   4.940000   0.432589
     6  C    0.000000  -0.000004  -0.005840  -0.017482   0.432589   5.488577
     7  C   -0.000001   0.000709  -0.030040  -0.012888  -0.029688   0.383822
     8  C   -0.000011  -0.027303   0.463689  -0.028918  -0.011107  -0.016814
     9  C   -0.000108  -0.004337  -0.028905   0.000723   0.000045   0.000549
    10  C    0.000000   0.000017   0.000766  -0.000007   0.000001   0.000015
    11  C    0.000000   0.000000   0.000036   0.000000  -0.000014   0.000742
    12  C    0.000000  -0.000007   0.000876   0.000011   0.001379  -0.034220
    13  N    0.000000   0.000000   0.000000   0.000000   0.000000   0.000000
    14  C    0.000000   0.000000   0.000000   0.000000   0.000000  -0.000005
    15  H    0.000067  -0.003538  -0.027772   0.380529  -0.023220   0.001075
    16  H    0.000000  -0.000020   0.001467  -0.035912   0.380873  -0.031829
    17  H   -0.000110   0.001666  -0.003568   0.000019  -0.000002  -0.000012
    18  H    0.000000   0.000000  -0.000016   0.000000   0.000000   0.000000
    19  H    0.000000   0.000000  -0.000016   0.000001   0.000034  -0.001586
               7          8          9         10         11         12
     1  N   -0.000001  -0.000011  -0.000108   0.000000   0.000000   0.000000
     2  C    0.000709  -0.027303  -0.004337   0.000017   0.000000  -0.000007
     3  C   -0.030040   0.463689  -0.028905   0.000766   0.000036   0.000876
     4  C   -0.012888  -0.028918   0.000723  -0.000007   0.000000   0.000011
     5  C   -0.029688  -0.011107   0.000045   0.000001  -0.000014   0.001379
     6  C    0.383822  -0.016814   0.000549   0.000015   0.000742  -0.034220
     7  C    4.904026   0.441829  -0.022779  -0.007892  -0.024992   0.468966
     8  C    0.441829   4.818479   0.462297  -0.027432  -0.008881  -0.034087
     9  C   -0.022779   0.462297   4.834590   0.532208  -0.029495  -0.009800
    10  C   -0.007892  -0.027432   0.532208   4.825403   0.460577  -0.029251
    11  C   -0.024992  -0.008881  -0.029495   0.460577   4.786459   0.500683
    12  C    0.468966  -0.034087  -0.009800  -0.029251   0.500683   4.840625
    13  N   -0.000001   0.000000  -0.000001  -0.000076  -0.011066  -0.000098
    14  C    0.000780   0.000008   0.000849  -0.028810   0.421251  -0.028277
    15  H    0.000093   0.001311  -0.000016   0.000000   0.000000   0.000001
    16  H    0.002199   0.000000   0.000001   0.000000   0.000000  -0.000016
    17  H    0.001098  -0.024478   0.385103  -0.026197   0.001395   0.000009
    18  H    0.000024   0.001353  -0.024998   0.387278  -0.024809   0.001216
    19  H   -0.025095   0.001425   0.000030   0.001294  -0.026264   0.383567
              13         14         15         16         17         18
     1  N    0.000000   0.000000   0.000067   0.000000  -0.000110   0.000000
     2  C    0.000000   0.000000  -0.003538  -0.000020   0.001666   0.000000
     3  C    0.000000   0.000000  -0.027772   0.001467  -0.003568  -0.000016
     4  C    0.000000   0.000000   0.380529  -0.035912   0.000019   0.000000
     5  C    0.000000   0.000000  -0.023220   0.380873  -0.000002   0.000000
     6  C    0.000000  -0.000005   0.001075  -0.031829  -0.000012   0.000000
     7  C   -0.000001   0.000780   0.000093   0.002199   0.001098   0.000024
     8  C    0.000000   0.000008   0.001311   0.000000  -0.024478   0.001353
     9  C   -0.000001   0.000849  -0.000016   0.000001   0.385103  -0.024998
    10  C   -0.000076  -0.028810   0.000000   0.000000  -0.026197   0.387278
    11  C   -0.011066   0.421251   0.000000   0.000000   0.001395  -0.024809
    12  C   -0.000098  -0.028277   0.000001  -0.000016   0.000009   0.001216
    13  N    6.594812   0.660171   0.000000   0.000000   0.000000   0.000058
    14  C    0.660171   4.935456   0.000000   0.000000  -0.000017  -0.002982
    15  H    0.000000   0.000000   0.627543  -0.003983  -0.000002   0.000000
    16  H    0.000000   0.000000  -0.003983   0.668362   0.000000   0.000000
    17  H    0.000000  -0.000017  -0.000002   0.000000   0.603168  -0.003860
    18  H    0.000058  -0.002982   0.000000   0.000000  -0.003860   0.605026
    19  H    0.000060  -0.003415   0.000000  -0.000003   0.000002  -0.000034
              19
     1  N    0.000000
     2  C    0.000000
     3  C   -0.000016
     4  C    0.000001
     5  C    0.000034
     6  C   -0.001586
     7  C   -0.025095
     8  C    0.001425
     9  C    0.000030
    10  C    0.001294
    11  C   -0.026264
    12  C    0.383567
    13  N    0.000060
    14  C   -0.003415
    15  H    0.000000
    16  H   -0.000003
    17  H    0.000002
    18  H   -0.000034
    19  H    0.593329
 Mulliken charges:
               1
     1  N   -0.262501
     2  C    0.035243
     3  C   -0.061706
     4  C   -0.082928
     5  C   -0.148061
     6  C   -0.199575
     7  C   -0.050170
     8  C   -0.011360
     9  C   -0.095956
    10  C   -0.087893
    11  C   -0.045624
    12  C   -0.061578
    13  N   -0.243860
    14  C    0.044992
    15  H    0.047913
    16  H    0.018862
    17  H    0.065787
    18  H    0.061743
    19  H    0.076670
 Sum of Mulliken charges =  -1.00000
 Mulliken charges with hydrogens summed into heavy atoms:
               1
     1  N   -0.262501
     2  C    0.035243
     3  C   -0.061706
     4  C   -0.035014
     5  C   -0.129199
     6  C   -0.199575
     7  C   -0.050170
     8  C   -0.011360
     9  C   -0.030169
    10  C   -0.026150
    11  C   -0.045624
    12  C    0.015092
    13  N   -0.243860
    14  C    0.044992
 Electronic spatial extent (au):  <R**2>=           2935.6271
 Charge=             -1.0000 electrons
 Dipole moment (field-independent basis, Debye):
    X=              0.0636    Y=             -2.0534    Z=             -0.0001  Tot=              2.0544
 Quadrupole moment (field-independent basis, Debye-Ang):
   XX=           -122.8220   YY=            -97.6615   ZZ=            -74.1404
   XY=             -7.6542   XZ=             -0.0011   YZ=              0.0010
 Traceless Quadrupole moment (field-independent basis, Debye-Ang):
   XX=            -24.6140   YY=              0.5465   ZZ=             24.0676
   XY=             -7.6542   XZ=             -0.0011   YZ=              0.0010
 Octapole moment (field-independent basis, Debye-Ang**2):
  XXX=           -108.0766  YYY=            -35.2284  ZZZ=              0.0007  XYY=             46.7636
  XXY=             50.6350  XXZ=             -0.0027  XZZ=              1.7866  YZZ=             -2.2922
  YYZ=             -0.0005  XYZ=             -0.0017
 Hexadecapole moment (field-independent basis, Debye-Ang**3):
 XXXX=          -3846.5370 YYYY=          -1184.8871 ZZZZ=            -58.3387 XXXY=           -115.3655
 XXXZ=             -0.0245 YYYX=            -66.6889 YYYZ=              0.0087 ZZZX=              0.0002
 ZZZY=             -0.0007 XXYY=           -738.6501 XXZZ=           -459.1823 YYZZ=           -175.6992
 XXYZ=              0.0098 YYXZ=             -0.0002 ZZXY=              7.3010
 N-N= 6.917947751389D+02 E-N=-2.705717624484D+03  KE= 5.547558667668D+02
 1\1\GINC-N057\FOpt\RB3LYP\STO-3G\C12H5N2(1-)\R2532\15-Jun-2021\0\\#N B
 3LYP/STO-3G OPT\\1Naph\\-1,1\N,1.1751239004,-0.8575453847,2.3813212448
 \C,2.36448685,-0.9398755698,2.2356702887\C,3.8041999157,-1.0498287366,
 2.0768777324\C,4.5849553099,-1.7428903308,3.0362837445\C,5.9857480489,
 -1.8613577918,2.9006805746\C,6.8134081674,-1.3384272093,1.8415134103\C
 ,5.9339602623,-0.6237564545,0.869645615\C,4.4828446367,-0.4616418364,0
 .9455738721\C,3.7766652171,0.2629954559,-0.0833410978\C,4.4437904402,0
 .8192825068,-1.1594666987\C,5.8758028922,0.6792820368,-1.2675500722\C,
 6.5747619957,-0.0252907181,-0.2699772013\N,7.1517782085,1.7517168568,-
 3.3398755864\C,6.5781838658,1.2669518851,-2.4039111922\H,4.0606444484,
 -2.1894638136,3.8969578355\H,6.4752605245,-2.4250878002,3.7152492376\H
 ,2.6858547125,0.3689868226,0.0000675268\H,3.8984408509,1.3691042112,-1
 .9377485994\H,7.6669797528,-0.1336241293,-0.3495606341\\Version=ES64L-
 G09RevD.01\State=1-A\HF=-562.5182551\RMSD=2.284e-09\RMSF=1.802e-05\Dip
 ole=-0.6847415,0.2900121,-0.3166921\Quadrupole=-8.6573495,11.6071522,-
 2.9498027,-2.8466748,10.9800942,11.0519827\PG=C01 [X(C12H5N2)]\\@


 IT IS DOUBTED WHETHER A MAN EVER BRINGS HIS FACULTIES TO BEAR WITH THEIR FULL FORCE
 ON A SUBJECT UNTIL HE WRITES UPON IT.

                          -- CICERO
 Job cpu time:       0 days  0 hours  4 minutes 16.8 seconds.
 File lengths (MBytes):  RWF=      5 Int=      0 D2E=      0 Chk=      2 Scr=      1
 Normal termination of Gaussian 09 at Tue Jun 15 11:18:02 2021.
