 Entering Gaussian System, Link 0=/usr/local/apps//g09/g09
 Input=9.com
 Output=9.out
 Initial command:
 /usr/local/apps//g09/l1.exe "/tmp/bnp.472652.sequoia/Gau-27029.inp" -scrdir="/tmp/bnp.472652.sequoia/"
 Entering Link 1 = /usr/local/apps//g09/l1.exe PID=     27030.
  
 Copyright (c) 1988,1990,1992,1993,1995,1998,2003,2009,2013,
            Gaussian, Inc.  All Rights Reserved.
  
 This is part of the Gaussian(R) 09 program.  It is based on
 the Gaussian(R) 03 system (copyright 2003, Gaussian, Inc.),
 the Gaussian(R) 98 system (copyright 1998, Gaussian, Inc.),
 the Gaussian(R) 94 system (copyright 1995, Gaussian, Inc.),
 the Gaussian 92(TM) system (copyright 1992, Gaussian, Inc.),
 the Gaussian 90(TM) system (copyright 1990, Gaussian, Inc.),
 the Gaussian 88(TM) system (copyright 1988, Gaussian, Inc.),
 the Gaussian 86(TM) system (copyright 1986, Carnegie Mellon
 University), and the Gaussian 82(TM) system (copyright 1983,
 Carnegie Mellon University). Gaussian is a federally registered
 trademark of Gaussian, Inc.
  
 This software contains proprietary and confidential information,
 including trade secrets, belonging to Gaussian, Inc.
  
 This software is provided under written license and may be
 used, copied, transmitted, or stored only in accord with that
 written license.
  
 The following legend is applicable only to US Government
 contracts under FAR:
  
                    RESTRICTED RIGHTS LEGEND
  
 Use, reproduction and disclosure by the US Government is
 subject to restrictions as set forth in subparagraphs (a)
 and (c) of the Commercial Computer Software - Restricted
 Rights clause in FAR 52.227-19.
  
 Gaussian, Inc.
 340 Quinnipiac St., Bldg. 40, Wallingford CT 06492
  
  
 ---------------------------------------------------------------
 Warning -- This program may not be used in any manner that
 competes with the business of Gaussian, Inc. or will provide
 assistance to any competitor of Gaussian, Inc.  The licensee
 of this program is prohibited from giving any competitor of
 Gaussian, Inc. access to this program.  By using this program,
 the user acknowledges that Gaussian, Inc. is engaged in the
 business of creating and licensing software in the field of
 computational chemistry and represents and warrants to the
 licensee that it is not a competitor of Gaussian, Inc. and that
 it will not use this program in any manner prohibited above.
 ---------------------------------------------------------------
  

 Cite this work as:
 Gaussian 09, Revision D.01,
 M. J. Frisch, G. W. Trucks, H. B. Schlegel, G. E. Scuseria, 
 M. A. Robb, J. R. Cheeseman, G. Scalmani, V. Barone, B. Mennucci, 
 G. A. Petersson, H. Nakatsuji, M. Caricato, X. Li, H. P. Hratchian, 
 A. F. Izmaylov, J. Bloino, G. Zheng, J. L. Sonnenberg, M. Hada, 
 M. Ehara, K. Toyota, R. Fukuda, J. Hasegawa, M. Ishida, T. Nakajima, 
 Y. Honda, O. Kitao, H. Nakai, T. Vreven, J. A. Montgomery, Jr., 
 J. E. Peralta, F. Ogliaro, M. Bearpark, J. J. Heyd, E. Brothers, 
 K. N. Kudin, V. N. Staroverov, T. Keith, R. Kobayashi, J. Normand, 
 K. Raghavachari, A. Rendell, J. C. Burant, S. S. Iyengar, J. Tomasi, 
 M. Cossi, N. Rega, J. M. Millam, M. Klene, J. E. Knox, J. B. Cross, 
 V. Bakken, C. Adamo, J. Jaramillo, R. Gomperts, R. E. Stratmann, 
 O. Yazyev, A. J. Austin, R. Cammi, C. Pomelli, J. W. Ochterski, 
 R. L. Martin, K. Morokuma, V. G. Zakrzewski, G. A. Voth, 
 P. Salvador, J. J. Dannenberg, S. Dapprich, A. D. Daniels, 
 O. Farkas, J. B. Foresman, J. V. Ortiz, J. Cioslowski, 
 and D. J. Fox, Gaussian, Inc., Wallingford CT, 2013.
 
 ******************************************
 Gaussian 09:  ES64L-G09RevD.01 24-Apr-2013
                15-Jun-2021 
 ******************************************
 -------------------
 #N B3LYP/STO-3G OPT
 -------------------
 1/14=-1,18=20,19=15,26=3,38=1/1,3;
 2/9=110,12=2,17=6,18=5,40=1/2;
 3/6=3,11=2,16=1,25=1,30=1,71=1,74=-5/1,2,3;
 4//1;
 5/5=2,38=5/2;
 6/7=2,8=2,9=2,10=2,28=1/1;
 7//1,2,3,16;
 1/14=-1,18=20,19=15,26=3/3(2);
 2/9=110/2;
 99//99;
 2/9=110/2;
 3/6=3,11=2,16=1,25=1,30=1,71=1,74=-5/1,2,3;
 4/5=5,16=3,69=1/1;
 5/5=2,38=5/2;
 7//1,2,3,16;
 1/14=-1,18=20,19=15,26=3/3(-5);
 2/9=110/2;
 6/7=2,8=2,9=2,10=2,19=2,28=1/1;
 99/9=1/99;
 -----
 2Naph
 -----
 Symbolic Z-matrix:
 Charge = -1 Multiplicity = 1
 N                     1.07764  -0.11746   0.00832 
 C                     2.23433  -0.03672   0.00728 
 C                     4.41364  -1.1472    0.00554 
 C                     3.66788   0.04321   0.00607 
 C                     4.33191   1.27545   0.00595 
 C                     5.73396   1.30917   0.00491 
 C                     6.48623   0.12541   0.00441 
 C                     5.81983  -1.12127   0.00474 
 C                     6.58233  -2.30087   0.00469 
 C                     7.97578  -2.24844   0.00416 
 C                     8.62905  -1.02179   0.00365 
 C                     7.88923   0.16031   0.00375 
 N                     3.07795   3.54662   0.00955 
 C                     3.62116   2.52223   0.00777 
 H                     3.89299  -2.10549   0.006 
 H                     6.24592   2.272     0.00476 
 H                     6.10568  -3.27807   0.00514 
 H                     9.71505  -0.9894    0.00335 
 H                     8.41993   1.11059   0.00357 
 

 GradGradGradGradGradGradGradGradGradGradGradGradGradGradGradGradGradGrad
 Berny optimization.
 Initialization pass.
                           ----------------------------
                           !    Initial Parameters    !
                           ! (Angstroms and Degrees)  !
 --------------------------                            --------------------------
 ! Name  Definition              Value          Derivative Info.                !
 --------------------------------------------------------------------------------
 ! R1    R(1,2)                  1.1595         estimate D2E/DX2                !
 ! R2    R(2,4)                  1.4358         estimate D2E/DX2                !
 ! R3    R(3,4)                  1.4047         estimate D2E/DX2                !
 ! R4    R(3,8)                  1.4064         estimate D2E/DX2                !
 ! R5    R(3,15)                 1.0906         estimate D2E/DX2                !
 ! R6    R(4,5)                  1.3998         estimate D2E/DX2                !
 ! R7    R(5,6)                  1.4025         estimate D2E/DX2                !
 ! R8    R(5,14)                 1.4351         estimate D2E/DX2                !
 ! R9    R(6,7)                  1.4026         estimate D2E/DX2                !
 ! R10   R(6,16)                 1.0905         estimate D2E/DX2                !
 ! R11   R(7,8)                  1.4136         estimate D2E/DX2                !
 ! R12   R(7,12)                 1.4034         estimate D2E/DX2                !
 ! R13   R(8,9)                  1.4046         estimate D2E/DX2                !
 ! R14   R(9,10)                 1.3944         estimate D2E/DX2                !
 ! R15   R(9,17)                 1.0873         estimate D2E/DX2                !
 ! R16   R(10,11)                1.3898         estimate D2E/DX2                !
 ! R17   R(11,12)                1.3945         estimate D2E/DX2                !
 ! R18   R(11,18)                1.0865         estimate D2E/DX2                !
 ! R19   R(12,19)                1.0884         estimate D2E/DX2                !
 ! R20   R(13,14)                1.1595         estimate D2E/DX2                !
 ! A1    A(4,3,8)              121.0096         estimate D2E/DX2                !
 ! A2    A(4,3,15)             119.4182         estimate D2E/DX2                !
 ! A3    A(8,3,15)             119.5722         estimate D2E/DX2                !
 ! A4    A(2,4,3)              118.8747         estimate D2E/DX2                !
 ! A5    A(2,4,5)              121.5107         estimate D2E/DX2                !
 ! A6    A(3,4,5)              119.6146         estimate D2E/DX2                !
 ! A7    A(4,5,6)              119.6971         estimate D2E/DX2                !
 ! A8    A(4,5,14)             121.9945         estimate D2E/DX2                !
 ! A9    A(6,5,14)             118.3084         estimate D2E/DX2                !
 ! A10   A(5,6,7)              121.0579         estimate D2E/DX2                !
 ! A11   A(5,6,16)             119.3784         estimate D2E/DX2                !
 ! A12   A(7,6,16)             119.5637         estimate D2E/DX2                !
 ! A13   A(6,7,8)              119.4381         estimate D2E/DX2                !
 ! A14   A(6,7,12)             121.0107         estimate D2E/DX2                !
 ! A15   A(8,7,12)             119.5512         estimate D2E/DX2                !
 ! A16   A(3,8,7)              119.1827         estimate D2E/DX2                !
 ! A17   A(3,8,9)              121.8224         estimate D2E/DX2                !
 ! A18   A(7,8,9)              118.9949         estimate D2E/DX2                !
 ! A19   A(8,9,10)             120.7241         estimate D2E/DX2                !
 ! A20   A(8,9,17)             121.1194         estimate D2E/DX2                !
 ! A21   A(10,9,17)            118.1566         estimate D2E/DX2                !
 ! A22   A(9,10,11)            120.193          estimate D2E/DX2                !
 ! A23   A(10,11,12)           119.9213         estimate D2E/DX2                !
 ! A24   A(10,11,18)           119.7465         estimate D2E/DX2                !
 ! A25   A(12,11,18)           120.3321         estimate D2E/DX2                !
 ! A26   A(7,12,11)            120.6155         estimate D2E/DX2                !
 ! A27   A(7,12,19)            120.6069         estimate D2E/DX2                !
 ! A28   A(11,12,19)           118.7776         estimate D2E/DX2                !
 ! A29   L(1,2,4,13,-1)        180.8016         estimate D2E/DX2                !
 ! A30   L(5,14,13,1,-1)       181.7501         estimate D2E/DX2                !
 ! A31   L(1,2,4,13,-2)        179.996          estimate D2E/DX2                !
 ! A32   L(5,14,13,1,-2)       179.9829         estimate D2E/DX2                !
 ! D1    D(8,3,4,2)           -179.9818         estimate D2E/DX2                !
 ! D2    D(8,3,4,5)             -0.0071         estimate D2E/DX2                !
 ! D3    D(15,3,4,2)             0.0033         estimate D2E/DX2                !
 ! D4    D(15,3,4,5)           179.978          estimate D2E/DX2                !
 ! D5    D(4,3,8,7)             -0.0028         estimate D2E/DX2                !
 ! D6    D(4,3,8,9)            179.9765         estimate D2E/DX2                !
 ! D7    D(15,3,8,7)          -179.9878         estimate D2E/DX2                !
 ! D8    D(15,3,8,9)            -0.0085         estimate D2E/DX2                !
 ! D9    D(2,4,5,6)            179.9925         estimate D2E/DX2                !
 ! D10   D(2,4,5,14)             0.0351         estimate D2E/DX2                !
 ! D11   D(3,4,5,6)              0.0185         estimate D2E/DX2                !
 ! D12   D(3,4,5,14)          -179.9389         estimate D2E/DX2                !
 ! D13   D(4,5,6,7)             -0.0203         estimate D2E/DX2                !
 ! D14   D(4,5,6,16)           179.9963         estimate D2E/DX2                !
 ! D15   D(14,5,6,7)           179.9386         estimate D2E/DX2                !
 ! D16   D(14,5,6,16)           -0.0448         estimate D2E/DX2                !
 ! D17   D(5,6,7,8)              0.0104         estimate D2E/DX2                !
 ! D18   D(5,6,7,12)          -179.9819         estimate D2E/DX2                !
 ! D19   D(16,6,7,8)           179.9938         estimate D2E/DX2                !
 ! D20   D(16,6,7,12)            0.0015         estimate D2E/DX2                !
 ! D21   D(6,7,8,3)              0.0011         estimate D2E/DX2                !
 ! D22   D(6,7,8,9)           -179.9787         estimate D2E/DX2                !
 ! D23   D(12,7,8,3)           179.9935         estimate D2E/DX2                !
 ! D24   D(12,7,8,9)             0.0136         estimate D2E/DX2                !
 ! D25   D(6,7,12,11)          179.9812         estimate D2E/DX2                !
 ! D26   D(6,7,12,19)           -0.0027         estimate D2E/DX2                !
 ! D27   D(8,7,12,11)           -0.0111         estimate D2E/DX2                !
 ! D28   D(8,7,12,19)         -179.995          estimate D2E/DX2                !
 ! D29   D(3,8,9,10)          -179.987          estimate D2E/DX2                !
 ! D30   D(3,8,9,17)             0.0082         estimate D2E/DX2                !
 ! D31   D(7,8,9,10)            -0.0077         estimate D2E/DX2                !
 ! D32   D(7,8,9,17)           179.9875         estimate D2E/DX2                !
 ! D33   D(8,9,10,11)           -0.0011         estimate D2E/DX2                !
 ! D34   D(17,9,10,11)        -179.9964         estimate D2E/DX2                !
 ! D35   D(9,10,11,12)           0.0039         estimate D2E/DX2                !
 ! D36   D(9,10,11,18)         179.9932         estimate D2E/DX2                !
 ! D37   D(10,11,12,7)           0.0023         estimate D2E/DX2                !
 ! D38   D(10,11,12,19)        179.9864         estimate D2E/DX2                !
 ! D39   D(18,11,12,7)        -179.987          estimate D2E/DX2                !
 ! D40   D(18,11,12,19)         -0.0029         estimate D2E/DX2                !
 --------------------------------------------------------------------------------
 Trust Radius=3.00D-01 FncErr=1.00D-07 GrdErr=1.00D-06
 Number of steps in this run=    102 maximum allowed number of steps=    114.
 GradGradGradGradGradGradGradGradGradGradGradGradGradGradGradGradGradGrad

                          Input orientation:                          
 ---------------------------------------------------------------------
 Center     Atomic      Atomic             Coordinates (Angstroms)
 Number     Number       Type             X           Y           Z
 ---------------------------------------------------------------------
      1          7           0        1.077640   -0.117460    0.008320
      2          6           0        2.234330   -0.036720    0.007280
      3          6           0        4.413640   -1.147200    0.005540
      4          6           0        3.667880    0.043210    0.006070
      5          6           0        4.331910    1.275450    0.005950
      6          6           0        5.733960    1.309170    0.004910
      7          6           0        6.486230    0.125410    0.004410
      8          6           0        5.819830   -1.121270    0.004740
      9          6           0        6.582330   -2.300870    0.004690
     10          6           0        7.975780   -2.248440    0.004160
     11          6           0        8.629050   -1.021790    0.003650
     12          6           0        7.889230    0.160310    0.003750
     13          7           0        3.077950    3.546620    0.009550
     14          6           0        3.621160    2.522230    0.007770
     15          1           0        3.892990   -2.105490    0.006000
     16          1           0        6.245920    2.272000    0.004760
     17          1           0        6.105680   -3.278070    0.005140
     18          1           0        9.715050   -0.989400    0.003350
     19          1           0        8.419930    1.110590    0.003570
 ---------------------------------------------------------------------
                    Distance matrix (angstroms):
                    1          2          3          4          5
     1  N    0.000000
     2  C    1.159505   0.000000
     3  C    3.491313   2.445927   0.000000
     4  C    2.595219   1.435777   1.404719   0.000000
     5  C    3.539841   2.474194   2.424028   1.399768   0.000000
     6  C    4.869969   3.749511   2.788727   2.423085   1.402456
     7  C    5.414042   4.254991   2.432112   2.819549   2.442067
     8  C    4.847269   3.745940   1.406429   2.446815   2.821024
     9  C    5.921900   4.902192   2.456455   3.740151   4.225453
    10  C    7.219794   6.152720   3.728481   4.879515   5.069082
    11  C    7.605368   6.470148   4.217276   5.074193   4.872651
    12  C    6.817253   5.658333   3.713396   4.222974   3.728011
    13  N    4.174533   3.681308   4.880167   3.552733   2.594348
    14  C    3.665714   2.910588   3.754031   2.479461   1.435141
    15  H    3.446515   2.651596   1.090594   2.160460   3.409312
    16  H    5.693913   4.628504   3.879198   3.407902   2.157904
    17  H    5.938910   5.049129   2.720957   4.119924   4.886799
    18  H    8.681311   7.541140   5.303758   6.134701   5.840184
    19  H    7.444283   6.291103   4.598693   4.870450   4.091344
                    6          7          8          9         10
     6  C    0.000000
     7  C    1.402568   0.000000
     8  C    2.431956   1.413612   0.000000
     9  C    3.708385   2.428182   1.404586   0.000000
    10  C    4.205038   2.802485   2.432824   1.394436   0.000000
    11  C    3.716843   2.430586   2.810981   2.413526   1.389760
    12  C    2.442349   1.403434   2.434104   2.786646   2.410304
    13  N    3.472836   4.829190   5.413606   6.817173   7.587588
    14  C    2.436277   3.735423   4.255497   5.659579   6.459259
    15  H    3.879314   3.420791   2.163655   2.696428   4.085292
    16  H    1.090479   2.159999   3.419917   4.585228   4.840123
    17  H    4.602276   3.424689   2.175660   1.087251   2.134810
    18  H    4.597010   3.415857   3.897452   3.396158   2.147148
    19  H    2.693301   2.170202   3.426619   3.874898   3.388267
                   11         12         13         14         15
    11  C    0.000000
    12  C    1.394523   0.000000
    13  N    7.189236   5.883498   0.000000
    14  C    6.135068   4.878023   1.159506   0.000000
    15  H    4.858464   4.593886   5.710574   4.635697   0.000000
    16  H    4.065509   2.675762   3.414779   2.636663   4.969779
    17  H    3.384996   3.873436   7.466161   6.310018   2.504185
    18  H    1.086483   2.157650   8.039068   7.033282   5.928073
    19  H    2.142610   1.088428   5.871203   5.002093   5.553050
                   16         17         18         19
    16  H    0.000000
    17  H    5.551842   0.000000
    18  H    4.761470   4.273823   0.000000
    19  H    2.464791   4.961461   2.467244   0.000000
 Stoichiometry    C12H5N2(1-)
 Framework group  C1[X(C12H5N2)]
 Deg. of freedom    51
 Full point group                 C1      NOp   1
 Largest Abelian subgroup         C1      NOp   1
 Largest concise Abelian subgroup C1      NOp   1
                         Standard orientation:                         
 ---------------------------------------------------------------------
 Center     Atomic      Atomic             Coordinates (Angstroms)
 Number     Number       Type             X           Y           Z
 ---------------------------------------------------------------------
      1          7           0       -3.522943   -2.032344    0.000137
      2          6           0       -2.532522   -1.429421   -0.000226
      3          6           0       -0.086637   -1.415040   -0.000282
      4          6           0       -1.295790   -0.700070   -0.000590
      5          6           0       -1.271823    0.699493   -0.000706
      6          6           0       -0.041852    1.373328   -0.000904
      7          6           0        1.170031    0.667256   -0.000564
      8          6           0        1.150589   -0.746223   -0.000235
      9          6           0        2.369649   -1.443902    0.000560
     10          6           0        3.583387   -0.757396    0.000860
     11          6           0        3.600364    0.632260    0.000350
     12          6           0        2.400304    1.342575   -0.000382
     13          7           0       -3.428749    2.141125    0.001397
     14          6           0       -2.475765    1.480614    0.000279
     15          1           0       -0.109048   -2.505404    0.000172
     16          1           0       -0.029245    2.463734   -0.001054
     17          1           0        2.395007   -2.530857    0.001036
     18          1           0        4.550195    1.159770    0.000700
     19          1           0        2.435321    2.430439   -0.000547
 ---------------------------------------------------------------------
 Rotational constants (GHZ):      1.5417803      0.4862780      0.3696807
 Standard basis: STO-3G (5D, 7F)
 There are    75 symmetry adapted cartesian basis functions of A   symmetry.
 There are    75 symmetry adapted basis functions of A   symmetry.
    75 basis functions,   225 primitive gaussians,    75 cartesian basis functions
    46 alpha electrons       46 beta electrons
       nuclear repulsion energy       708.8303725076 Hartrees.
 NAtoms=   19 NActive=   19 NUniq=   19 SFac= 1.00D+00 NAtFMM=   60 NAOKFM=F Big=F
 Integral buffers will be    131072 words long.
 Raffenetti 2 integral format.
 Two-electron integral symmetry is turned on.
 One-electron integrals computed using PRISM.
 NBasis=    75 RedAO= T EigKep=  1.54D-01  NBF=    75
 NBsUse=    75 1.00D-06 EigRej= -1.00D+00 NBFU=    75
 ExpMin= 1.69D-01 ExpMax= 9.91D+01 ExpMxC= 9.91D+01 IAcc=1 IRadAn=         1 AccDes= 0.00D+00
 Harris functional with IExCor=  402 and IRadAn=       1 diagonalized for initial guess.
 HarFok:  IExCor=  402 AccDes= 0.00D+00 IRadAn=         1 IDoV= 1 UseB2=F ITyADJ=14
 ICtDFT=  3500011 ScaDFX=  1.000000  1.000000  1.000000  1.000000
 FoFCou: FMM=F IPFlag=           0 FMFlag=      100000 FMFlg1=           0
         NFxFlg=           0 DoJE=T BraDBF=F KetDBF=T FulRan=T
         wScrn=  0.000000 ICntrl=     500 IOpCl=  0 I1Cent=   200000004 NGrid=           0
         NMat0=    1 NMatS0=      1 NMatT0=    0 NMatD0=    1 NMtDS0=    0 NMtDT0=    0
 Petite list used in FoFCou.
 Keep R1 ints in memory in canonical form, NReq=4993994.
 Requested convergence on RMS density matrix=1.00D-08 within 128 cycles.
 Requested convergence on MAX density matrix=1.00D-06.
 Requested convergence on             energy=1.00D-06.
 No special actions if energy rises.
 Integral accuracy reduced to 1.0D-05 until final iterations.
 EnCoef did     6 forward-backward iterations
 EnCoef did     2 forward-backward iterations
 Rare condition: small coef for last iteration:  0.000D+00
 Rare condition: small coef for last iteration:  0.000D+00
 Rare condition: small coef for last iteration:  0.000D+00
 Problem detected with inexpensive integrals.
 Switching to full accuracy and repeating last cycle.
 SCF Done:  E(RB3LYP) =  -562.471408736     A.U. after   35 cycles
            NFock= 35  Conv=0.44D-08     -V/T= 2.0129

 **********************************************************************

            Population analysis using the SCF density.

 **********************************************************************

 Orbital symmetries:
       Occupied  (A) (A) (A) (A) (A) (A) (A) (A) (A) (A) (A) (A)
                 (A) (A) (A) (A) (A) (A) (A) (A) (A) (A) (A) (A)
                 (A) (A) (A) (A) (A) (A) (A) (A) (A) (A) (A) (A)
                 (A) (A) (A) (A) (A) (A) (A) (A) (A) (A)
       Virtual   (A) (A) (A) (A) (A) (A) (A) (A) (A) (A) (A) (A)
                 (A) (A) (A) (A) (A) (A) (A) (A) (A) (A) (A) (A)
                 (A) (A) (A) (A) (A)
 The electronic state is 1-A.
 Alpha  occ. eigenvalues --  -13.99934 -13.99546  -9.91246  -9.91073  -9.90562
 Alpha  occ. eigenvalues --   -9.90161  -9.88165  -9.87244  -9.86660  -9.86129
 Alpha  occ. eigenvalues --   -9.83486  -9.80978  -9.79371  -9.65821  -0.75200
 Alpha  occ. eigenvalues --   -0.74484  -0.69385  -0.63130  -0.59533  -0.55064
 Alpha  occ. eigenvalues --   -0.52115  -0.45303  -0.43550  -0.41135  -0.36069
 Alpha  occ. eigenvalues --   -0.33607  -0.30355  -0.27021  -0.26315  -0.23668
 Alpha  occ. eigenvalues --   -0.23364  -0.21195  -0.19646  -0.18097  -0.17668
 Alpha  occ. eigenvalues --   -0.17297  -0.15862  -0.15716  -0.14814  -0.14565
 Alpha  occ. eigenvalues --   -0.11224  -0.10404  -0.08468  -0.02816   0.01245
 Alpha  occ. eigenvalues --    0.14040
 Alpha virt. eigenvalues --    0.17386   0.18234   0.26609   0.27305   0.28071
 Alpha virt. eigenvalues --    0.31604   0.32173   0.40907   0.42936   0.47771
 Alpha virt. eigenvalues --    0.49215   0.53496   0.54609   0.57669   0.60833
 Alpha virt. eigenvalues --    0.61572   0.64249   0.65526   0.69790   0.72570
 Alpha virt. eigenvalues --    0.74356   0.80086   0.80771   0.86082   0.88628
 Alpha virt. eigenvalues --    0.99120   0.99919   1.11542   1.16092
          Condensed to atoms (all electrons):
               1          2          3          4          5          6
     1  N    6.572187   0.686696  -0.000228  -0.011429  -0.000075  -0.000001
     2  C    0.686696   4.890965  -0.031125   0.430248  -0.030646   0.000941
     3  C   -0.000228  -0.031125   4.846444   0.501743  -0.031370  -0.011137
     4  C   -0.011429   0.430248   0.501743   4.762971   0.473172  -0.031427
     5  C   -0.000075  -0.030646  -0.031370   0.473172   4.761580   0.506394
     6  C   -0.000001   0.000941  -0.011137  -0.031427   0.506394   4.831871
     7  C    0.000000   0.000018  -0.029833  -0.009432  -0.029231   0.483874
     8  C   -0.000001   0.000981   0.475577  -0.028217  -0.009684  -0.028754
     9  C    0.000000  -0.000007  -0.031135   0.000877   0.000047   0.000990
    10  C    0.000000   0.000000   0.001042  -0.000013   0.000000   0.000018
    11  C    0.000000   0.000000   0.000038   0.000000  -0.000010   0.000927
    12  C    0.000000   0.000000   0.001032   0.000042   0.000931  -0.032916
    13  N   -0.000008  -0.000011  -0.000001  -0.000048  -0.011450  -0.000285
    14  C   -0.000010  -0.003041   0.000929  -0.029969   0.430127  -0.031897
    15  H    0.000055  -0.003867   0.390267  -0.026472   0.001353   0.000045
    16  H    0.000000  -0.000020   0.000045   0.001370  -0.026148   0.389766
    17  H    0.000000  -0.000001  -0.003601   0.000006  -0.000001  -0.000023
    18  H    0.000000   0.000000   0.000002   0.000000   0.000000  -0.000022
    19  H    0.000000   0.000000  -0.000019  -0.000001   0.000024  -0.004359
               7          8          9         10         11         12
     1  N    0.000000  -0.000001   0.000000   0.000000   0.000000   0.000000
     2  C    0.000018   0.000981  -0.000007   0.000000   0.000000   0.000000
     3  C   -0.029833   0.475577  -0.031135   0.001042   0.000038   0.001032
     4  C   -0.009432  -0.028217   0.000877  -0.000013   0.000000   0.000042
     5  C   -0.029231  -0.009684   0.000047   0.000000  -0.000010   0.000931
     6  C    0.483874  -0.028754   0.000990   0.000018   0.000927  -0.032916
     7  C    4.784807   0.462928  -0.033190  -0.012194  -0.030542   0.489183
     8  C    0.462928   4.799461   0.472035  -0.027351  -0.011697  -0.030220
     9  C   -0.033190   0.472035   4.899188   0.489104  -0.029887  -0.013289
    10  C   -0.012194  -0.027351   0.489104   5.399392   0.464093  -0.028871
    11  C   -0.030542  -0.011697  -0.029887   0.464093   4.871524   0.500599
    12  C    0.489183  -0.030220  -0.013289  -0.028871   0.500599   4.871886
    13  N   -0.000001   0.000000   0.000000   0.000000   0.000000   0.000000
    14  C    0.000998   0.000018   0.000000   0.000000   0.000000  -0.000008
    15  H    0.001428  -0.025490  -0.004021   0.000030   0.000001  -0.000021
    16  H   -0.025091   0.001442  -0.000021   0.000000   0.000027  -0.004267
    17  H    0.001317  -0.032080   0.387413  -0.036289   0.002063  -0.000022
    18  H    0.001389  -0.000039   0.002064  -0.035707   0.385922  -0.033092
    19  H   -0.026996   0.001372   0.000088   0.001666  -0.026735   0.382643
              13         14         15         16         17         18
     1  N   -0.000008  -0.000010   0.000055   0.000000   0.000000   0.000000
     2  C   -0.000011  -0.003041  -0.003867  -0.000020  -0.000001   0.000000
     3  C   -0.000001   0.000929   0.390267   0.000045  -0.003601   0.000002
     4  C   -0.000048  -0.029969  -0.026472   0.001370   0.000006   0.000000
     5  C   -0.011450   0.430127   0.001353  -0.026148  -0.000001   0.000000
     6  C   -0.000285  -0.031897   0.000045   0.389766  -0.000023  -0.000022
     7  C   -0.000001   0.000998   0.001428  -0.025091   0.001317   0.001389
     8  C    0.000000   0.000018  -0.025490   0.001442  -0.032080  -0.000039
     9  C    0.000000   0.000000  -0.004021  -0.000021   0.387413   0.002064
    10  C    0.000000   0.000000   0.000030   0.000000  -0.036289  -0.035707
    11  C    0.000000   0.000000   0.000001   0.000027   0.002063   0.385922
    12  C    0.000000  -0.000008  -0.000021  -0.004267  -0.000022  -0.033092
    13  N    6.568834   0.688282   0.000000   0.000051   0.000000   0.000000
    14  C    0.688282   4.886841  -0.000019  -0.004030   0.000000   0.000000
    15  H    0.000000  -0.000019   0.597636   0.000002   0.001221   0.000000
    16  H    0.000051  -0.004030   0.000002   0.598354   0.000001  -0.000002
    17  H    0.000000   0.000000   0.001221   0.000001   0.653505  -0.000012
    18  H    0.000000   0.000000   0.000000  -0.000002  -0.000012   0.654390
    19  H    0.000000  -0.000001   0.000001   0.000981   0.000004  -0.003140
              19
     1  N    0.000000
     2  C    0.000000
     3  C   -0.000019
     4  C   -0.000001
     5  C    0.000024
     6  C   -0.004359
     7  C   -0.026996
     8  C    0.001372
     9  C    0.000088
    10  C    0.001666
    11  C   -0.026735
    12  C    0.382643
    13  N    0.000000
    14  C   -0.000001
    15  H    0.000001
    16  H    0.000981
    17  H    0.000004
    18  H   -0.003140
    19  H    0.636784
 Mulliken charges:
               1
     1  N   -0.247186
     2  C    0.058869
     3  C   -0.078670
     4  C   -0.033421
     5  C   -0.035015
     6  C   -0.074006
     7  C   -0.029432
     8  C   -0.020279
     9  C   -0.140257
    10  C   -0.214920
    11  C   -0.126320
    12  C   -0.103611
    13  N   -0.245362
    14  C    0.061779
    15  H    0.067852
    16  H    0.067542
    17  H    0.026499
    18  H    0.028248
    19  H    0.037689
 Sum of Mulliken charges =  -1.00000
 Mulliken charges with hydrogens summed into heavy atoms:
               1
     1  N   -0.247186
     2  C    0.058869
     3  C   -0.010818
     4  C   -0.033421
     5  C   -0.035015
     6  C   -0.006464
     7  C   -0.029432
     8  C   -0.020279
     9  C   -0.113758
    10  C   -0.214920
    11  C   -0.098072
    12  C   -0.065922
    13  N   -0.245362
    14  C    0.061779
 Electronic spatial extent (au):  <R**2>=           2767.9132
 Charge=             -1.0000 electrons
 Dipole moment (field-independent basis, Debye):
    X=             -1.1464    Y=              1.6719    Z=             -0.0221  Tot=              2.0273
 Quadrupole moment (field-independent basis, Debye-Ang):
   XX=           -139.9287   YY=            -85.8257   ZZ=            -73.9820
   XY=              7.3611   XZ=             -0.2025   YZ=              0.1425
 Traceless Quadrupole moment (field-independent basis, Debye-Ang):
   XX=            -40.0166   YY=             14.0864   ZZ=             25.9302
   XY=              7.3611   XZ=             -0.2025   YZ=              0.1425
 Octapole moment (field-independent basis, Debye-Ang**2):
  XXX=            -20.0440  YYY=              1.6067  ZZZ=             -0.0161  XYY=             32.0426
  XXY=             30.5214  XXZ=             -1.0493  XZZ=             -7.4145  YZZ=              0.0894
  YYZ=             -0.1549  XYZ=              0.7638
 Hexadecapole moment (field-independent basis, Debye-Ang**3):
 XXXX=          -3625.8883 YYYY=           -917.0186 ZZZZ=            -58.1590 XXXY=            122.8959
 XXXZ=             -3.9911 YYYX=             22.1915 YYYZ=              0.0887 ZZZX=             -0.1623
 ZZZY=              0.0948 XXYY=           -809.4183 XXZZ=           -443.0677 YYZZ=           -158.7738
 XXYZ=              2.7087 YYXZ=             -0.5769 ZZXY=             -0.2266
 N-N= 7.088303725076D+02 E-N=-2.739349705362D+03  KE= 5.553136552260D+02
 Calling FoFJK, ICntrl=      2127 FMM=F ISym2X=0 I1Cent= 0 IOpClX= 0 NMat=1 NMatS=1 NMatT=0.
 ***** Axes restored to original set *****
 -------------------------------------------------------------------
 Center     Atomic                   Forces (Hartrees/Bohr)
 Number     Number              X              Y              Z
 -------------------------------------------------------------------
      1        7          -0.108007941   -0.008304948   -0.000732799
      2        6           0.088704707    0.009907623    0.002550151
      3        6          -0.022709271    0.008643474   -0.001812383
      4        6          -0.012180931   -0.040644889    0.002912233
      5        6           0.028000219    0.030758192   -0.001494385
      6        6          -0.016596745    0.015977238    0.000123131
      7        6           0.012862147    0.023558717   -0.001837744
      8        6          -0.019595963   -0.030585709   -0.010503587
      9        6           0.031587216    0.005712735   -0.003804161
     10        6           0.017006989   -0.074142252    0.009436640
     11        6          -0.022524521    0.024755995   -0.003415276
     12        6           0.038889830    0.003114412    0.009842565
     13        7          -0.050042578    0.094158832    0.000170189
     14        6           0.037966538   -0.077549974   -0.000247163
     15        1          -0.002604787   -0.004838166   -0.001996340
     16        1           0.002282895    0.005382520   -0.000015355
     17        1          -0.015513845   -0.006495378    0.006389482
     18        1           0.014987077    0.007057627   -0.008834306
     19        1          -0.002511035    0.013533952    0.003269108
 -------------------------------------------------------------------
 Cartesian Forces:  Max     0.108007941 RMS     0.031335519

 GradGradGradGradGradGradGradGradGradGradGradGradGradGradGradGradGradGrad
 Berny optimization.
 FormGI is forming the generalized inverse of G from B-inverse, IUseBI=4.
 Internal  Forces:  Max     0.108323444 RMS     0.020849412
 Search for a local minimum.
 Step number   1 out of a maximum of  102
 All quantities printed in internal units (Hartrees-Bohrs-Radians)
 Mixed Optimization -- RFO/linear search
 Second derivative matrix not updated -- first step.
 ITU=  0
     Eigenvalues ---    0.01615   0.01615   0.01982   0.01992   0.02010
     Eigenvalues ---    0.02015   0.02034   0.02056   0.02057   0.02066
     Eigenvalues ---    0.02070   0.02077   0.02090   0.02099   0.02173
     Eigenvalues ---    0.02186   0.04873   0.04873   0.16000   0.16000
     Eigenvalues ---    0.16000   0.16000   0.16000   0.22371   0.23055
     Eigenvalues ---    0.23353   0.23945   0.24646   0.25000   0.25000
     Eigenvalues ---    0.25000   0.34744   0.34757   0.34995   0.35132
     Eigenvalues ---    0.35222   0.38886   0.40170   0.40259   0.40905
     Eigenvalues ---    0.41743   0.43542   0.44556   0.44907   0.45023
     Eigenvalues ---    0.45416   0.45868   0.45978   0.46950   1.28117
     Eigenvalues ---    1.28118
 RFO step:  Lambda=-5.94726419D-02 EMin= 1.61549333D-02
 Linear search not attempted -- first point.
 Maximum step size (   0.300) exceeded in Quadratic search.
    -- Step size scaled by   0.902
 Iteration  1 RMS(Cart)=  0.05454442 RMS(Int)=  0.00140510
 Iteration  2 RMS(Cart)=  0.00178998 RMS(Int)=  0.00053744
 Iteration  3 RMS(Cart)=  0.00000199 RMS(Int)=  0.00053744
 Iteration  4 RMS(Cart)=  0.00000000 RMS(Int)=  0.00053744
 Variable       Old X    -DE/DX   Delta X   Delta X   Delta X     New X
                                 (Linear)    (Quad)   (Total)
    R1        2.19115   0.10832   0.00000   0.07285   0.07285   2.26400
    R2        2.71323   0.01919   0.00000   0.03751   0.03751   2.75074
    R3        2.65453   0.00847   0.00000   0.01471   0.01474   2.66928
    R4        2.65777   0.03311   0.00000   0.05938   0.05945   2.71721
    R5        2.06092   0.00549   0.00000   0.01217   0.01217   2.07310
    R6        2.64518   0.04993   0.00000   0.08664   0.08660   2.73178
    R7        2.65026   0.00751   0.00000   0.01296   0.01289   2.66315
    R8        2.71202   0.02041   0.00000   0.03983   0.03983   2.75185
    R9        2.65047   0.03258   0.00000   0.05775   0.05772   2.70819
   R10        2.06071   0.00582   0.00000   0.01290   0.01290   2.07361
   R11        2.67134   0.04399   0.00000   0.08156   0.08145   2.75279
   R12        2.65211   0.02595   0.00000   0.04594   0.04561   2.69772
   R13        2.65428   0.03534   0.00000   0.06323   0.06342   2.71770
   R14        2.63510   0.01900   0.00000   0.03256   0.03289   2.66800
   R15        2.05461   0.01264   0.00000   0.02775   0.02775   2.08235
   R16        2.62627   0.05066   0.00000   0.08513   0.08526   2.71153
   R17        2.63527   0.01504   0.00000   0.02534   0.02515   2.66042
   R18        2.05316   0.01519   0.00000   0.03328   0.03328   2.08643
   R19        2.05683   0.01059   0.00000   0.02333   0.02333   2.08016
   R20        2.19115   0.10663   0.00000   0.07171   0.07171   2.26286
    A1        2.11202   0.00551   0.00000   0.01716   0.01718   2.12919
    A2        2.08424  -0.00273   0.00000  -0.00849  -0.00852   2.07573
    A3        2.08693  -0.00278   0.00000  -0.00868  -0.00871   2.07822
    A4        2.07476   0.00274   0.00000   0.00901   0.00904   2.08380
    A5        2.12076  -0.00284   0.00000  -0.00724  -0.00720   2.11356
    A6        2.08767   0.00010   0.00000  -0.00176  -0.00184   2.08583
    A7        2.08911  -0.00051   0.00000  -0.00345  -0.00364   2.08547
    A8        2.12921  -0.00293   0.00000  -0.00755  -0.00747   2.12173
    A9        2.06487   0.00344   0.00000   0.01100   0.01108   2.07595
   A10        2.11286   0.00320   0.00000   0.00989   0.00971   2.12257
   A11        2.08355  -0.00213   0.00000  -0.00711  -0.00703   2.07652
   A12        2.08678  -0.00107   0.00000  -0.00278  -0.00270   2.08408
   A13        2.08459  -0.00113   0.00000  -0.00190  -0.00153   2.08306
   A14        2.11203   0.00853   0.00000   0.02455   0.02502   2.13705
   A15        2.08656  -0.00740   0.00000  -0.02266  -0.02349   2.06308
   A16        2.08013  -0.00717   0.00000  -0.01994  -0.01999   2.06014
   A17        2.12620   0.00959   0.00000   0.02730   0.02715   2.15336
   A18        2.07685  -0.00242   0.00000  -0.00737  -0.00787   2.06899
   A19        2.10703   0.01934   0.00000   0.06137   0.06143   2.16847
   A20        2.11393  -0.02107   0.00000  -0.07752  -0.07769   2.03625
   A21        2.06222   0.00173   0.00000   0.01615   0.01592   2.07814
   A22        2.09776  -0.03221   0.00000  -0.09802  -0.09777   2.00000
   A23        2.09302   0.02494   0.00000   0.07657   0.07601   2.16903
   A24        2.08997  -0.00568   0.00000  -0.01041  -0.01013   2.07984
   A25        2.10019  -0.01926   0.00000  -0.06616  -0.06588   2.03431
   A26        2.10514  -0.00224   0.00000  -0.00989  -0.01098   2.09416
   A27        2.10499  -0.00792   0.00000  -0.03220  -0.03192   2.07306
   A28        2.07306   0.01016   0.00000   0.04210   0.04242   2.11548
   A29        3.15558   0.00168   0.00000   0.02000   0.02000   3.17559
   A30        3.17214  -0.00022   0.00000  -0.00183  -0.00183   3.17031
   A31        3.14152   0.00174   0.00000   0.02069   0.02069   3.16222
   A32        3.14129  -0.00002   0.00000  -0.00018  -0.00018   3.14112
    D1       -3.14128   0.00117   0.00000   0.01318   0.01321  -3.12806
    D2       -0.00012   0.00138   0.00000   0.01554   0.01567   0.01555
    D3        0.00006   0.00027   0.00000   0.00308   0.00311   0.00316
    D4        3.14121   0.00048   0.00000   0.00543   0.00556  -3.13642
    D5       -0.00005  -0.00050   0.00000  -0.00568  -0.00582  -0.00587
    D6        3.14118  -0.00412   0.00000  -0.04666  -0.04638   3.09481
    D7       -3.14138   0.00040   0.00000   0.00444   0.00430  -3.13708
    D8       -0.00015  -0.00322   0.00000  -0.03654  -0.03626  -0.03640
    D9        3.14146  -0.00094   0.00000  -0.01054  -0.01044   3.13102
   D10        0.00061  -0.00027   0.00000  -0.00305  -0.00309  -0.00248
   D11        0.00032  -0.00115   0.00000  -0.01296  -0.01295  -0.01262
   D12       -3.14053  -0.00049   0.00000  -0.00547  -0.00559   3.13706
   D13       -0.00035   0.00007   0.00000   0.00073   0.00059   0.00024
   D14        3.14153   0.00065   0.00000   0.00730   0.00715  -3.13451
   D15        3.14052  -0.00057   0.00000  -0.00649  -0.00657   3.13395
   D16       -0.00078   0.00001   0.00000   0.00008  -0.00001  -0.00080
   D17        0.00018   0.00080   0.00000   0.00911   0.00920   0.00939
   D18       -3.14128   0.00104   0.00000   0.01174   0.01140  -3.12988
   D19        3.14148   0.00022   0.00000   0.00252   0.00262  -3.13908
   D20        0.00003   0.00046   0.00000   0.00515   0.00481   0.00484
   D21        0.00002  -0.00058   0.00000  -0.00658  -0.00660  -0.00658
   D22       -3.14122   0.00293   0.00000   0.03322   0.03194  -3.10928
   D23        3.14148  -0.00081   0.00000  -0.00917  -0.00870   3.13278
   D24        0.00024   0.00270   0.00000   0.03063   0.02985   0.03008
   D25        3.14126   0.00227   0.00000   0.02519   0.02380  -3.11812
   D26       -0.00005  -0.00079   0.00000  -0.00896  -0.00940  -0.00945
   D27       -0.00019   0.00251   0.00000   0.02783   0.02597   0.02578
   D28       -3.14150  -0.00056   0.00000  -0.00632  -0.00724   3.13445
   D29       -3.14137  -0.00019   0.00000  -0.00223  -0.00207   3.13975
   D30        0.00014  -0.00275   0.00000  -0.03082  -0.02989  -0.02974
   D31       -0.00013  -0.00381   0.00000  -0.04313  -0.04282  -0.04296
   D32        3.14137  -0.00637   0.00000  -0.07173  -0.07064   3.07073
   D33       -0.00002  -0.00032   0.00000  -0.00312  -0.00181  -0.00183
   D34       -3.14153   0.00217   0.00000   0.02465   0.02663  -3.11490
   D35        0.00007   0.00558   0.00000   0.06213   0.06273   0.06279
   D36        3.14147   0.00549   0.00000   0.06082   0.06019  -3.08152
   D37        0.00004  -0.00668   0.00000  -0.07461  -0.07634  -0.07630
   D38        3.14136  -0.00368   0.00000  -0.04109  -0.04232   3.09903
   D39       -3.14137  -0.00660   0.00000  -0.07329  -0.07386   3.06795
   D40       -0.00005  -0.00359   0.00000  -0.03977  -0.03985  -0.03990
         Item               Value     Threshold  Converged?
 Maximum Force            0.108323     0.000450     NO 
 RMS     Force            0.020849     0.000300     NO 
 Maximum Displacement     0.202220     0.001800     NO 
 RMS     Displacement     0.054242     0.001200     NO 
 Predicted change in Energy=-3.325795D-02
 GradGradGradGradGradGradGradGradGradGradGradGradGradGradGradGradGradGrad

                          Input orientation:                          
 ---------------------------------------------------------------------
 Center     Atomic      Atomic             Coordinates (Angstroms)
 Number     Number       Type             X           Y           Z
 ---------------------------------------------------------------------
      1          7           0        0.994592   -0.139184   -0.007761
      2          6           0        2.188180   -0.036982    0.007767
      3          6           0        4.397433   -1.155351   -0.020071
      4          6           0        3.641842    0.037957   -0.002333
      5          6           0        4.323835    1.312557    0.002958
      6          6           0        5.732725    1.345481    0.005820
      7          6           0        6.512272    0.142936    0.003326
      8          6           0        5.835282   -1.146789   -0.014222
      9          6           0        6.633481   -2.342470    0.024344
     10          6           0        8.045257   -2.355450    0.028567
     11          6           0        8.654460   -1.056940   -0.011708
     12          6           0        7.939687    0.155522    0.020269
     13          7           0        3.015591    3.620908    0.026423
     14          6           0        3.589502    2.570000    0.015464
     15          1           0        3.870103   -2.117294   -0.028919
     16          1           0        6.241709    2.317541    0.016635
     17          1           0        6.089110   -3.298963    0.079473
     18          1           0        9.754382   -0.980174   -0.069129
     19          1           0        8.461048    1.124975    0.026710
 ---------------------------------------------------------------------
                    Distance matrix (angstroms):
                    1          2          3          4          5
     1  N    0.000000
     2  C    1.198057   0.000000
     3  C    3.551348   2.476352   0.000000
     4  C    2.653176   1.455627   1.412521   0.000000
     5  C    3.632014   2.526321   2.469112   1.445596   0.000000
     6  C    4.965312   3.804603   2.835108   2.466066   1.409278
     7  C    5.524899   4.327835   2.481661   2.872355   2.481385
     8  C    4.944451   3.812284   1.437887   2.492979   2.886720
     9  C    6.054137   5.007619   2.532022   3.823225   4.323673
    10  C    7.390876   6.299292   3.840472   5.011928   5.225315
    11  C    7.714653   6.546256   4.258173   5.130812   4.936502
    12  C    6.951402   5.754741   3.777245   4.299513   3.796501
    13  N    4.268945   3.750348   4.972353   3.637383   2.653401
    14  C    3.751503   2.959749   3.812119   2.532646   1.456216
    15  H    3.490263   2.675427   1.097037   2.167468   3.459879
    16  H    5.793818   4.687744   3.932388   3.457769   2.165276
    17  H    5.995492   5.085559   2.732536   4.138943   4.938438
    18  H    8.800281   7.625151   5.360037   6.197112   5.895138
    19  H    7.572797   6.379606   4.659940   4.940364   4.141531
                    6          7          8          9         10
     6  C    0.000000
     7  C    1.433113   0.000000
     8  C    2.494460   1.456714   0.000000
     9  C    3.796404   2.488449   1.438145   0.000000
    10  C    4.364082   2.931317   2.519262   1.411842   0.000000
    11  C    3.782654   2.455382   2.820610   2.395463   1.434879
    12  C    2.507367   1.427571   2.475020   2.818893   2.513205
    13  N    3.544124   4.931896   5.539246   6.975027   7.811172
    14  C    2.468390   3.799128   4.342687   5.779122   6.641836
    15  H    3.932096   3.477174   2.191808   2.773048   4.182336
    16  H    1.097306   2.191412   3.488225   4.676456   5.008969
    17  H    4.658680   3.468651   2.169115   1.101934   2.172400
    18  H    4.646290   3.431895   3.923024   3.406554   2.195914
    19  H    2.737298   2.182355   3.472353   3.919590   3.505174
                   11         12         13         14         15
    11  C    0.000000
    12  C    1.407831   0.000000
    13  N    7.326702   6.021267   0.000000
    14  C    6.229706   4.975323   1.197456   0.000000
    15  H    4.900481   4.661505   5.801742   4.695895   0.000000
    16  H    4.148409   2.749085   3.479468   2.664196   5.029348
    17  H    3.408226   3.919389   7.571918   6.379409   2.516362
    18  H    1.104091   2.142642   8.160293   7.114537   5.993279
    19  H    2.190808   1.100771   5.990216   5.081357   5.620692
                   16         17         18         19
    16  H    0.000000
    17  H    5.618928   0.000000
    18  H    4.818832   4.339711   0.000000
    19  H    2.519480   5.019971   2.472559   0.000000
 Stoichiometry    C12H5N2(1-)
 Framework group  C1[X(C12H5N2)]
 Deg. of freedom    51
 Full point group                 C1      NOp   1
 Largest Abelian subgroup         C1      NOp   1
 Largest concise Abelian subgroup C1      NOp   1
                         Standard orientation:                         
 ---------------------------------------------------------------------
 Center     Atomic      Atomic             Coordinates (Angstroms)
 Number     Number       Type             X           Y           Z
 ---------------------------------------------------------------------
      1          7           0       -3.571367   -2.108736   -0.006229
      2          6           0       -2.561944   -1.463579    0.007108
      3          6           0       -0.086018   -1.427421   -0.021238
      4          6           0       -1.309565   -0.721800   -0.005527
      5          6           0       -1.297923    0.723749   -0.004791
      6          6           0       -0.065663    1.407563   -0.004279
      7          6           0        1.183391    0.704942   -0.004758
      8          6           0        1.183205   -0.751714   -0.017718
      9          6           0        2.445592   -1.439461    0.022814
     10          6           0        3.701737   -0.794950    0.024807
     11          6           0        3.637808    0.637805   -0.019970
     12          6           0        2.441506    1.379399    0.009861
     13          7           0       -3.528953    2.159948    0.014505
     14          6           0       -2.532448    1.496022    0.005478
     15          1           0       -0.105988   -2.524262   -0.026628
     16          1           0       -0.066639    2.504844    0.003081
     17          1           0        2.408010   -2.539194    0.081413
     18          1           0        4.576097    1.216686   -0.079364
     19          1           0        2.452700    2.480109    0.012834
 ---------------------------------------------------------------------
 Rotational constants (GHZ):      1.4830882      0.4668916      0.3551259
 Standard basis: STO-3G (5D, 7F)
 There are    75 symmetry adapted cartesian basis functions of A   symmetry.
 There are    75 symmetry adapted basis functions of A   symmetry.
    75 basis functions,   225 primitive gaussians,    75 cartesian basis functions
    46 alpha electrons       46 beta electrons
       nuclear repulsion energy       695.0657125762 Hartrees.
 NAtoms=   19 NActive=   19 NUniq=   19 SFac= 1.00D+00 NAtFMM=   60 NAOKFM=F Big=F
 Integral buffers will be    131072 words long.
 Raffenetti 2 integral format.
 Two-electron integral symmetry is turned on.
 One-electron integrals computed using PRISM.
 NBasis=    75 RedAO= T EigKep=  1.73D-01  NBF=    75
 NBsUse=    75 1.00D-06 EigRej= -1.00D+00 NBFU=    75
 Initial guess from the checkpoint file:  "/tmp/bnp.472652.sequoia/Gau-27030.chk"
 B after Tr=     0.000000    0.000000    0.000000
         Rot=    0.999995   -0.000009   -0.000011   -0.003020 Ang=  -0.35 deg.
 ExpMin= 1.69D-01 ExpMax= 9.91D+01 ExpMxC= 9.91D+01 IAcc=1 IRadAn=         1 AccDes= 0.00D+00
 Harris functional with IExCor=  402 and IRadAn=       1 diagonalized for initial guess.
 HarFok:  IExCor=  402 AccDes= 0.00D+00 IRadAn=         1 IDoV= 1 UseB2=F ITyADJ=14
 ICtDFT=  3500011 ScaDFX=  1.000000  1.000000  1.000000  1.000000
 FoFCou: FMM=F IPFlag=           0 FMFlag=      100000 FMFlg1=           0
         NFxFlg=           0 DoJE=T BraDBF=F KetDBF=T FulRan=T
         wScrn=  0.000000 ICntrl=     500 IOpCl=  0 I1Cent=   200000004 NGrid=           0
         NMat0=    1 NMatS0=      1 NMatT0=    0 NMatD0=    1 NMtDS0=    0 NMtDT0=    0
 Petite list used in FoFCou.
 Keep R1 ints in memory in canonical form, NReq=4993994.
 Requested convergence on RMS density matrix=1.00D-08 within 128 cycles.
 Requested convergence on MAX density matrix=1.00D-06.
 Requested convergence on             energy=1.00D-06.
 No special actions if energy rises.
 Integral accuracy reduced to 1.0D-05 until final iterations.
 Initial convergence to 1.0D-05 achieved.  Increase integral accuracy.
 SCF Done:  E(RB3LYP) =  -562.502491841     A.U. after   18 cycles
            NFock= 18  Conv=0.85D-08     -V/T= 2.0141
 Calling FoFJK, ICntrl=      2127 FMM=F ISym2X=0 I1Cent= 0 IOpClX= 0 NMat=1 NMatS=1 NMatT=0.
 ***** Axes restored to original set *****
 -------------------------------------------------------------------
 Center     Atomic                   Forces (Hartrees/Bohr)
 Number     Number              X              Y              Z
 -------------------------------------------------------------------
      1        7          -0.006378881   -0.000323746    0.000193551
      2        6           0.004613695    0.001567112    0.000181617
      3        6          -0.001723770    0.010097544   -0.001454021
      4        6          -0.000224538   -0.014797485    0.001400495
      5        6           0.010829444    0.009109834   -0.000333242
      6        6          -0.006491437   -0.004449382   -0.000019262
      7        6          -0.001021341    0.008456938   -0.000164423
      8        6          -0.006902319   -0.009873688   -0.004196694
      9        6           0.006345585    0.011801460   -0.000756627
     10        6           0.008510549   -0.027813116    0.004299050
     11        6          -0.014259410    0.018499140   -0.002570182
     12        6           0.014381183   -0.005523549    0.003554136
     13        7          -0.003290651    0.005876652    0.000044386
     14        6           0.000807834   -0.005769643   -0.000152492
     15        1          -0.000536019   -0.001431794   -0.000980174
     16        1           0.000838922    0.000960382   -0.000103976
     17        1          -0.005134315    0.000610064    0.002775236
     18        1           0.001719636    0.001598653   -0.003712511
     19        1          -0.002084168    0.001404624    0.001995134
 -------------------------------------------------------------------
 Cartesian Forces:  Max     0.027813116 RMS     0.007114699

 GradGradGradGradGradGradGradGradGradGradGradGradGradGradGradGradGradGrad
 Berny optimization.
 Using GEDIIS/GDIIS optimizer.
 FormGI is forming the generalized inverse of G from B-inverse, IUseBI=4.
 Internal  Forces:  Max     0.015823083 RMS     0.003716131
 Search for a local minimum.
 Step number   2 out of a maximum of  102
 All quantities printed in internal units (Hartrees-Bohrs-Radians)
 Mixed Optimization -- RFO/linear search
 Update second derivatives using D2CorX and points    1    2
 DE= -3.11D-02 DEPred=-3.33D-02 R= 9.35D-01
 TightC=F SS=  1.41D+00  RLast= 3.58D-01 DXNew= 5.0454D-01 1.0744D+00
 Trust test= 9.35D-01 RLast= 3.58D-01 DXMaxT set to 5.05D-01
 ITU=  1  0
 Use linear search instead of GDIIS.
     Eigenvalues ---    0.01615   0.01619   0.01985   0.02003   0.02012
     Eigenvalues ---    0.02016   0.02037   0.02056   0.02057   0.02067
     Eigenvalues ---    0.02077   0.02083   0.02103   0.02109   0.02177
     Eigenvalues ---    0.02253   0.04873   0.04873   0.15855   0.15994
     Eigenvalues ---    0.15999   0.16000   0.16040   0.21421   0.22522
     Eigenvalues ---    0.23117   0.23901   0.24556   0.24972   0.24999
     Eigenvalues ---    0.25002   0.34733   0.34756   0.35025   0.35140
     Eigenvalues ---    0.35264   0.39224   0.40196   0.40411   0.41007
     Eigenvalues ---    0.41740   0.43569   0.43975   0.44607   0.44989
     Eigenvalues ---    0.45565   0.45684   0.46535   0.50422   1.28116
     Eigenvalues ---    1.33198
 RFO step:  Lambda=-5.65525417D-03 EMin= 1.61549249D-02
 Quartic linear search produced a step of  0.25243.
 Iteration  1 RMS(Cart)=  0.05101795 RMS(Int)=  0.00204890
 Iteration  2 RMS(Cart)=  0.00269514 RMS(Int)=  0.00086853
 Iteration  3 RMS(Cart)=  0.00000406 RMS(Int)=  0.00086852
 Iteration  4 RMS(Cart)=  0.00000000 RMS(Int)=  0.00086852
 Variable       Old X    -DE/DX   Delta X   Delta X   Delta X     New X
                                 (Linear)    (Quad)   (Total)
    R1        2.26400   0.00638   0.01839  -0.01325   0.00514   2.26914
    R2        2.75074   0.00170   0.00947  -0.00513   0.00434   2.75508
    R3        2.66928  -0.00644   0.00372  -0.02166  -0.01783   2.65145
    R4        2.71721   0.00037   0.01501  -0.01539  -0.00035   2.71686
    R5        2.07310   0.00152   0.00307   0.00198   0.00506   2.07816
    R6        2.73178   0.00808   0.02186  -0.00179   0.02015   2.75193
    R7        2.66315  -0.00452   0.00325  -0.01570  -0.01247   2.65068
    R8        2.75185   0.00134   0.01005  -0.00687   0.00318   2.75503
    R9        2.70819  -0.00051   0.01457  -0.01724  -0.00277   2.70542
   R10        2.07361   0.00124   0.00326   0.00078   0.00404   2.07765
   R11        2.75279   0.00422   0.02056  -0.01085   0.00953   2.76232
   R12        2.69772   0.00293   0.01151  -0.00499   0.00613   2.70385
   R13        2.71770   0.00096   0.01601  -0.01449   0.00174   2.71945
   R14        2.66800   0.00543   0.00830   0.00581   0.01454   2.68253
   R15        2.08235   0.00214   0.00700  -0.00022   0.00679   2.08914
   R16        2.71153   0.01569   0.02152   0.01764   0.03933   2.75086
   R17        2.66042  -0.00588   0.00635  -0.02264  -0.01662   2.64379
   R18        2.08643   0.00202   0.00840  -0.00220   0.00620   2.09263
   R19        2.08016   0.00026   0.00589  -0.00555   0.00034   2.08050
   R20        2.26286   0.00673   0.01810  -0.01260   0.00550   2.26837
    A1        2.12919   0.00176   0.00434   0.00366   0.00790   2.13709
    A2        2.07573  -0.00065  -0.00215  -0.00020  -0.00237   2.07335
    A3        2.07822  -0.00111  -0.00220  -0.00360  -0.00584   2.07238
    A4        2.08380   0.00223   0.00228   0.00852   0.01080   2.09460
    A5        2.11356  -0.00192  -0.00182  -0.00712  -0.00893   2.10463
    A6        2.08583  -0.00031  -0.00047  -0.00140  -0.00187   2.08395
    A7        2.08547  -0.00079  -0.00092  -0.00303  -0.00408   2.08139
    A8        2.12173  -0.00257  -0.00189  -0.01029  -0.01212   2.10962
    A9        2.07595   0.00336   0.00280   0.01331   0.01617   2.09212
   A10        2.12257   0.00101   0.00245   0.00208   0.00420   2.12677
   A11        2.07652  -0.00020  -0.00177   0.00189   0.00028   2.07679
   A12        2.08408  -0.00081  -0.00068  -0.00399  -0.00451   2.07957
   A13        2.08306  -0.00021  -0.00039   0.00036   0.00052   2.08358
   A14        2.13705   0.00268   0.00631   0.00873   0.01617   2.15322
   A15        2.06308  -0.00247  -0.00593  -0.00907  -0.01670   2.04638
   A16        2.06014  -0.00147  -0.00505  -0.00194  -0.00730   2.05284
   A17        2.15336   0.00160   0.00685   0.00179   0.00876   2.16212
   A18        2.06899  -0.00018  -0.00199  -0.00156  -0.00492   2.06406
   A19        2.16847   0.00887   0.01551   0.02921   0.04385   2.21231
   A20        2.03625  -0.00937  -0.01961  -0.03806  -0.05732   1.97893
   A21        2.07814   0.00049   0.00402   0.00846   0.01274   2.09088
   A22        2.00000  -0.01582  -0.02468  -0.05193  -0.07772   1.92228
   A23        2.16903   0.00981   0.01919   0.02900   0.04592   2.21495
   A24        2.07984  -0.00336  -0.00256  -0.01111  -0.01267   2.06718
   A25        2.03431  -0.00645  -0.01663  -0.01794  -0.03355   2.00076
   A26        2.09416  -0.00044  -0.00277  -0.00434  -0.00966   2.08450
   A27        2.07306  -0.00246  -0.00806  -0.00747  -0.01503   2.05804
   A28        2.11548   0.00286   0.01071   0.01054   0.02200   2.13748
   A29        3.17559  -0.00050   0.00505  -0.03834  -0.03329   3.14229
   A30        3.17031  -0.00017  -0.00046  -0.00318  -0.00364   3.16666
   A31        3.16222  -0.00060   0.00522  -0.04441  -0.03918   3.12303
   A32        3.14112   0.00004  -0.00004   0.00096   0.00092   3.14204
    D1       -3.12806   0.00060   0.00334   0.02285   0.02619  -3.10187
    D2        0.01555   0.00065   0.00396   0.02322   0.02740   0.04294
    D3        0.00316   0.00017   0.00078   0.00651   0.00742   0.01059
    D4       -3.13642   0.00021   0.00140   0.00688   0.00863  -3.12779
    D5       -0.00587  -0.00045  -0.00147  -0.01792  -0.01940  -0.02526
    D6        3.09481  -0.00181  -0.01171  -0.06742  -0.07835   3.01645
    D7       -3.13708  -0.00001   0.00109  -0.00159  -0.00066  -3.13773
    D8       -0.03640  -0.00137  -0.00915  -0.05108  -0.05961  -0.09602
    D9        3.13102  -0.00034  -0.00264  -0.01173  -0.01425   3.11677
   D10       -0.00248  -0.00026  -0.00078  -0.01023  -0.01099  -0.01347
   D11       -0.01262  -0.00038  -0.00327  -0.01209  -0.01543  -0.02806
   D12        3.13706  -0.00030  -0.00141  -0.01059  -0.01218   3.12488
   D13        0.00024  -0.00009   0.00015  -0.00373  -0.00376  -0.00352
   D14       -3.13451   0.00003   0.00181  -0.00126   0.00049  -3.13401
   D15        3.13395  -0.00019  -0.00166  -0.00530  -0.00710   3.12684
   D16       -0.00080  -0.00008   0.00000  -0.00283  -0.00285  -0.00365
   D17        0.00939   0.00028   0.00232   0.00878   0.01146   0.02085
   D18       -3.12988   0.00011   0.00288   0.00194   0.00465  -3.12523
   D19       -3.13908   0.00017   0.00066   0.00633   0.00723  -3.13186
   D20        0.00484  -0.00001   0.00121  -0.00050   0.00041   0.00525
   D21       -0.00658  -0.00004  -0.00167   0.00178  -0.00026  -0.00685
   D22       -3.10928   0.00121   0.00806   0.04875   0.05496  -3.05432
   D23        3.13278   0.00014  -0.00220   0.00835   0.00618   3.13896
   D24        0.03008   0.00138   0.00753   0.05532   0.06141   0.09149
   D25       -3.11812   0.00113   0.00601   0.04621   0.04972  -3.06840
   D26       -0.00945  -0.00010  -0.00237   0.00273  -0.00070  -0.01015
   D27        0.02578   0.00095   0.00656   0.03944   0.04302   0.06879
   D28        3.13445  -0.00027  -0.00183  -0.00404  -0.00740   3.12705
   D29        3.13975  -0.00069  -0.00052  -0.03394  -0.03495   3.10481
   D30       -0.02974  -0.00126  -0.00754  -0.05029  -0.05719  -0.08693
   D31       -0.04296  -0.00209  -0.01081  -0.08368  -0.09430  -0.13726
   D32        3.07073  -0.00266  -0.01783  -0.10003  -0.11654   2.95419
   D33       -0.00183   0.00036  -0.00046   0.01228   0.01376   0.01192
   D34       -3.11490   0.00108   0.00672   0.02968   0.03827  -3.07663
   D35        0.06279   0.00271   0.01583   0.09293   0.10956   0.17235
   D36       -3.08152   0.00208   0.01519   0.07027   0.08448  -2.99704
   D37       -0.07630  -0.00361  -0.01927  -0.12152  -0.14281  -0.21911
   D38        3.09903  -0.00225  -0.01068  -0.07661  -0.08925   3.00978
   D39        3.06795  -0.00299  -0.01865  -0.09941  -0.11858   2.94938
   D40       -0.03990  -0.00163  -0.01006  -0.05450  -0.06502  -0.10492
         Item               Value     Threshold  Converged?
 Maximum Force            0.015823     0.000450     NO 
 RMS     Force            0.003716     0.000300     NO 
 Maximum Displacement     0.248067     0.001800     NO 
 RMS     Displacement     0.051129     0.001200     NO 
 Predicted change in Energy=-3.597326D-03
 GradGradGradGradGradGradGradGradGradGradGradGradGradGradGradGradGradGrad

                          Input orientation:                          
 ---------------------------------------------------------------------
 Center     Atomic      Atomic             Coordinates (Angstroms)
 Number     Number       Type             X           Y           Z
 ---------------------------------------------------------------------
      1          7           0        0.995888   -0.101455    0.011611
      2          6           0        2.194833   -0.042697   -0.019231
      3          6           0        4.409850   -1.152326   -0.073464
      4          6           0        3.651041    0.027087   -0.030556
      5          6           0        4.331446    1.314298   -0.001746
      6          6           0        5.733592    1.348229    0.016828
      7          6           0        6.518491    0.150931    0.012555
      8          6           0        5.847110   -1.146523   -0.038353
      9          6           0        6.651758   -2.334794    0.068750
     10          6           0        8.069624   -2.403594    0.066903
     11          6           0        8.636081   -1.067380   -0.045801
     12          6           0        7.948796    0.147380    0.050595
     13          7           0        2.977400    3.601217    0.041220
     14          6           0        3.574624    2.560139    0.022124
     15          1           0        3.885675   -2.118453   -0.108239
     16          1           0        6.242715    2.322256    0.045846
     17          1           0        6.057198   -3.256059    0.210024
     18          1           0        9.728170   -0.968849   -0.200401
     19          1           0        8.466199    1.118873    0.074945
 ---------------------------------------------------------------------
                    Distance matrix (angstroms):
                    1          2          3          4          5
     1  N    0.000000
     2  C    1.200779   0.000000
     3  C    3.573052   2.478007   0.000000
     4  C    2.658597   1.457924   1.403085   0.000000
     5  C    3.623600   2.531177   2.468911   1.456260   0.000000
     6  C    4.954537   3.802472   2.830763   2.466714   1.402679
     7  C    5.528367   4.328108   2.480372   2.870447   2.477255
     8  C    4.962763   3.815486   1.437701   2.490008   2.890366
     9  C    6.081113   5.012547   2.538623   3.820032   4.324892
    10  C    7.439129   6.332016   3.870312   5.043965   5.272704
    11  C    7.701224   6.522297   4.227175   5.103794   4.919778
    12  C    6.957469   5.757526   3.772104   4.300204   3.801271
    13  N    4.199647   3.727489   4.966008   3.637767   2.658061
    14  C    3.705950   2.946233   3.806460   2.534752   1.457899
    15  H    3.526119   2.678737   1.099713   2.159729   3.463211
    16  H    5.779683   4.688560   3.930185   3.462718   2.161295
    17  H    5.967223   5.029525   2.686971   4.077563   4.889911
    18  H    8.777817   7.592216   5.322998   6.160538   5.863177
    19  H    7.569594   6.378726   4.651272   4.938509   4.140079
                    6          7          8          9         10
     6  C    0.000000
     7  C    1.431645   0.000000
     8  C    2.497943   1.461756   0.000000
     9  C    3.796101   2.489930   1.439068   0.000000
    10  C    4.419924   2.989075   2.555557   1.419535   0.000000
    11  C    3.776710   2.443742   2.790103   2.357329   1.455694
    12  C    2.519982   1.430816   2.469652   2.800684   2.553887
    13  N    3.559936   4.944150   5.548207   6.981253   7.873319
    14  C    2.475863   3.804041   4.348240   5.781981   6.696691
    15  H    3.930435   3.477990   2.190150   2.780169   4.197309
    16  H    1.099445   2.189021   3.492280   4.675036   5.066725
    17  H    4.619687   3.443743   2.134472   1.105526   2.190214
    18  H    4.623061   3.406068   3.888502   3.376768   2.209236
    19  H    2.742832   2.175861   3.464748   3.901288   3.544730
                   11         12         13         14         15
    11  C    0.000000
    12  C    1.399034   0.000000
    13  N    7.336487   6.053417   0.000000
    14  C    6.227508   4.995558   1.200368   0.000000
    15  H    4.865697   4.654909   5.793265   4.690732   0.000000
    16  H    4.150450   2.764204   3.506857   2.678780   5.029839
    17  H    3.392108   3.897045   7.519035   6.326661   2.472033
    18  H    1.107370   2.115452   8.155782   7.097140   5.955235
    19  H    2.196165   1.100952   6.024126   5.099759   5.612043
                   16         17         18         19
    16  H    0.000000
    17  H    5.583814   0.000000
    18  H    4.800042   4.344631   0.000000
    19  H    2.528411   4.996154   2.454988   0.000000
 Stoichiometry    C12H5N2(1-)
 Framework group  C1[X(C12H5N2)]
 Deg. of freedom    51
 Full point group                 C1      NOp   1
 Largest Abelian subgroup         C1      NOp   1
 Largest concise Abelian subgroup C1      NOp   1
                         Standard orientation:                         
 ---------------------------------------------------------------------
 Center     Atomic      Atomic             Coordinates (Angstroms)
 Number     Number       Type             X           Y           Z
 ---------------------------------------------------------------------
      1          7           0       -3.584312   -2.083469    0.022570
      2          6           0       -2.551787   -1.471522   -0.013282
      3          6           0       -0.075036   -1.417968   -0.071230
      4          6           0       -1.296933   -0.729511   -0.030687
      5          6           0       -1.296766    0.726607   -0.010427
      6          6           0       -0.072918    1.411835    0.002445
      7          6           0        1.180456    0.719984    0.000514
      8          6           0        1.193024   -0.741104   -0.041833
      9          6           0        2.459792   -1.415095    0.067492
     10          6           0        3.745512   -0.813468    0.060347
     11          6           0        3.621843    0.631905   -0.060676
     12          6           0        2.446741    1.385345    0.032910
     13          7           0       -3.562402    2.116119    0.027490
     14          6           0       -2.547971    1.474610    0.010768
     15          1           0       -0.087107   -2.517250   -0.099534
     16          1           0       -0.077853    2.511037    0.025016
     17          1           0        2.364772   -2.506566    0.215307
     18          1           0        4.541140    1.228365   -0.220043
     19          1           0        2.450303    2.486146    0.050792
 ---------------------------------------------------------------------
 Rotational constants (GHZ):      1.5036948      0.4633985      0.3544218
 Standard basis: STO-3G (5D, 7F)
 There are    75 symmetry adapted cartesian basis functions of A   symmetry.
 There are    75 symmetry adapted basis functions of A   symmetry.
    75 basis functions,   225 primitive gaussians,    75 cartesian basis functions
    46 alpha electrons       46 beta electrons
       nuclear repulsion energy       694.6062316662 Hartrees.
 NAtoms=   19 NActive=   19 NUniq=   19 SFac= 1.00D+00 NAtFMM=   60 NAOKFM=F Big=F
 Integral buffers will be    131072 words long.
 Raffenetti 2 integral format.
 Two-electron integral symmetry is turned on.
 One-electron integrals computed using PRISM.
 NBasis=    75 RedAO= T EigKep=  1.75D-01  NBF=    75
 NBsUse=    75 1.00D-06 EigRej= -1.00D+00 NBFU=    75
 Initial guess from the checkpoint file:  "/tmp/bnp.472652.sequoia/Gau-27030.chk"
 B after Tr=     0.000000    0.000000    0.000000
         Rot=    0.999999   -0.000016   -0.000008   -0.001571 Ang=  -0.18 deg.
 ExpMin= 1.69D-01 ExpMax= 9.91D+01 ExpMxC= 9.91D+01 IAcc=1 IRadAn=         1 AccDes= 0.00D+00
 Harris functional with IExCor=  402 and IRadAn=       1 diagonalized for initial guess.
 HarFok:  IExCor=  402 AccDes= 0.00D+00 IRadAn=         1 IDoV= 1 UseB2=F ITyADJ=14
 ICtDFT=  3500011 ScaDFX=  1.000000  1.000000  1.000000  1.000000
 FoFCou: FMM=F IPFlag=           0 FMFlag=      100000 FMFlg1=           0
         NFxFlg=           0 DoJE=T BraDBF=F KetDBF=T FulRan=T
         wScrn=  0.000000 ICntrl=     500 IOpCl=  0 I1Cent=   200000004 NGrid=           0
         NMat0=    1 NMatS0=      1 NMatT0=    0 NMatD0=    1 NMtDS0=    0 NMtDT0=    0
 Petite list used in FoFCou.
 Keep R1 ints in memory in canonical form, NReq=4993994.
 Requested convergence on RMS density matrix=1.00D-08 within 128 cycles.
 Requested convergence on MAX density matrix=1.00D-06.
 Requested convergence on             energy=1.00D-06.
 No special actions if energy rises.
 Integral accuracy reduced to 1.0D-05 until final iterations.
 Initial convergence to 1.0D-05 achieved.  Increase integral accuracy.
 SCF Done:  E(RB3LYP) =  -562.505960151     A.U. after   15 cycles
            NFock= 15  Conv=0.10D-07     -V/T= 2.0142
 Calling FoFJK, ICntrl=      2127 FMM=F ISym2X=0 I1Cent= 0 IOpClX= 0 NMat=1 NMatS=1 NMatT=0.
 ***** Axes restored to original set *****
 -------------------------------------------------------------------
 Center     Atomic                   Forces (Hartrees/Bohr)
 Number     Number              X              Y              Z
 -------------------------------------------------------------------
      1        7           0.000382394   -0.000907543   -0.001078111
      2        6          -0.000336084    0.002656850    0.002076891
      3        6           0.001726028   -0.001309944   -0.000229511
      4        6          -0.001511012   -0.002201012   -0.001417374
      5        6           0.000129051    0.002450145    0.000151165
      6        6           0.000460298   -0.000565602    0.000221774
      7        6          -0.000917350    0.001405897    0.000675442
      8        6          -0.001177222    0.000482815    0.001071407
      9        6          -0.002264372   -0.002756871    0.001132552
     10        6          -0.002549219   -0.000631309    0.000853041
     11        6           0.004821709    0.004502725   -0.002265032
     12        6           0.000208738    0.000152118   -0.001617390
     13        7          -0.000057043   -0.000017174    0.000024116
     14        6          -0.000455529   -0.000573458   -0.000258318
     15        1           0.000291921    0.000133161   -0.000266692
     16        1          -0.000024755   -0.000253334    0.000087821
     17        1           0.000450679   -0.000672694   -0.000518153
     18        1           0.000474704   -0.001040741    0.000426087
     19        1           0.000347064   -0.000854029    0.000930283
 -------------------------------------------------------------------
 Cartesian Forces:  Max     0.004821709 RMS     0.001439551

 GradGradGradGradGradGradGradGradGradGradGradGradGradGradGradGradGradGrad
 Berny optimization.
 Using GEDIIS/GDIIS optimizer.
 FormGI is forming the generalized inverse of G from B-inverse, IUseBI=4.
 GSVD:  received Info=                   1 from GESDD.
 Internal  Forces:  Max     0.003627587 RMS     0.000942609
 Search for a local minimum.
 Step number   3 out of a maximum of  102
 All quantities printed in internal units (Hartrees-Bohrs-Radians)
 Mixed Optimization -- En-DIIS/RFO-DIIS
 Update second derivatives using D2CorX and points    2    3
 DE= -3.47D-03 DEPred=-3.60D-03 R= 9.64D-01
 TightC=F SS=  1.41D+00  RLast= 3.76D-01 DXNew= 8.4853D-01 1.1274D+00
 Trust test= 9.64D-01 RLast= 3.76D-01 DXMaxT set to 8.49D-01
 ITU=  1  1  0
 Use linear search instead of GDIIS.
     Eigenvalues ---    0.01566   0.01616   0.01963   0.02006   0.02016
     Eigenvalues ---    0.02021   0.02041   0.02056   0.02057   0.02067
     Eigenvalues ---    0.02074   0.02083   0.02107   0.02142   0.02184
     Eigenvalues ---    0.02427   0.04872   0.04873   0.15846   0.15956
     Eigenvalues ---    0.15994   0.16000   0.16218   0.22181   0.22559
     Eigenvalues ---    0.23133   0.23907   0.24449   0.24949   0.24999
     Eigenvalues ---    0.25488   0.34727   0.34755   0.35019   0.35121
     Eigenvalues ---    0.35229   0.39167   0.40174   0.40360   0.41006
     Eigenvalues ---    0.41383   0.42050   0.43871   0.44617   0.44986
     Eigenvalues ---    0.45535   0.45706   0.46429   0.50635   1.28113
     Eigenvalues ---    1.32946
 RFO step:  Lambda=-8.28077698D-04 EMin= 1.56611379D-02
 Quartic linear search produced a step of -0.07243.
 Iteration  1 RMS(Cart)=  0.03743872 RMS(Int)=  0.00279421
 Iteration  2 RMS(Cart)=  0.00293299 RMS(Int)=  0.00007914
 Iteration  3 RMS(Cart)=  0.00001236 RMS(Int)=  0.00007887
 Iteration  4 RMS(Cart)=  0.00000000 RMS(Int)=  0.00007887
 Variable       Old X    -DE/DX   Delta X   Delta X   Delta X     New X
                                 (Linear)    (Quad)   (Total)
    R1        2.26914  -0.00036  -0.00037  -0.00001  -0.00039   2.26876
    R2        2.75508  -0.00012  -0.00031   0.00015  -0.00017   2.75491
    R3        2.65145   0.00115   0.00129  -0.00112   0.00017   2.65162
    R4        2.71686  -0.00098   0.00003  -0.00283  -0.00281   2.71405
    R5        2.07816  -0.00025  -0.00037   0.00017  -0.00020   2.07796
    R6        2.75193   0.00126  -0.00146   0.00558   0.00413   2.75606
    R7        2.65068   0.00082   0.00090  -0.00070   0.00021   2.65089
    R8        2.75503  -0.00024  -0.00023  -0.00038  -0.00061   2.75442
    R9        2.70542   0.00010   0.00020  -0.00094  -0.00074   2.70468
   R10        2.07765  -0.00023  -0.00029   0.00000  -0.00029   2.07736
   R11        2.76232   0.00195  -0.00069   0.00477   0.00406   2.76638
   R12        2.70385   0.00257  -0.00044   0.00590   0.00547   2.70932
   R13        2.71945   0.00071  -0.00013   0.00099   0.00085   2.72029
   R14        2.68253   0.00061  -0.00105   0.00365   0.00258   2.68511
   R15        2.08914   0.00025  -0.00049   0.00164   0.00115   2.09029
   R16        2.75086   0.00363  -0.00285   0.01380   0.01094   2.76180
   R17        2.64379   0.00019   0.00120  -0.00291  -0.00167   2.64212
   R18        2.09263   0.00032  -0.00045   0.00165   0.00120   2.09382
   R19        2.08050  -0.00057  -0.00002  -0.00168  -0.00171   2.07879
   R20        2.26837   0.00001  -0.00040   0.00034  -0.00006   2.26831
    A1        2.13709  -0.00001  -0.00057   0.00089   0.00030   2.13739
    A2        2.07335   0.00021   0.00017   0.00109   0.00127   2.07463
    A3        2.07238  -0.00019   0.00042  -0.00190  -0.00146   2.07092
    A4        2.09460   0.00138  -0.00078   0.00700   0.00621   2.10082
    A5        2.10463  -0.00130   0.00065  -0.00646  -0.00581   2.09881
    A6        2.08395  -0.00009   0.00014  -0.00053  -0.00040   2.08355
    A7        2.08139  -0.00022   0.00030  -0.00124  -0.00095   2.08044
    A8        2.10962  -0.00100   0.00088  -0.00599  -0.00513   2.10449
    A9        2.09212   0.00121  -0.00117   0.00732   0.00613   2.09825
   A10        2.12677   0.00034  -0.00030   0.00205   0.00173   2.12851
   A11        2.07679  -0.00007  -0.00002   0.00008   0.00004   2.07683
   A12        2.07957  -0.00027   0.00033  -0.00203  -0.00172   2.07785
   A13        2.08358  -0.00053  -0.00004  -0.00191  -0.00201   2.08157
   A14        2.15322   0.00000  -0.00117   0.00351   0.00229   2.15551
   A15        2.04638   0.00053   0.00121  -0.00165  -0.00039   2.04599
   A16        2.05284   0.00052   0.00053   0.00089   0.00142   2.05426
   A17        2.16212  -0.00090  -0.00063  -0.00076  -0.00137   2.16074
   A18        2.06406   0.00041   0.00036   0.00035   0.00074   2.06481
   A19        2.21231  -0.00188  -0.00318  -0.00076  -0.00396   2.20836
   A20        1.97893   0.00169   0.00415  -0.00108   0.00301   1.98194
   A21        2.09088   0.00021  -0.00092   0.00257   0.00159   2.09247
   A22        1.92228   0.00304   0.00563  -0.00232   0.00334   1.92562
   A23        2.21495  -0.00255  -0.00333  -0.00306  -0.00637   2.20858
   A24        2.06718   0.00014   0.00092  -0.00368  -0.00296   2.06421
   A25        2.00076   0.00239   0.00243   0.00597   0.00819   2.00895
   A26        2.08450   0.00037   0.00070  -0.00031   0.00049   2.08499
   A27        2.05804   0.00056   0.00109   0.00167   0.00270   2.06074
   A28        2.13748  -0.00090  -0.00159  -0.00043  -0.00211   2.13537
   A29        3.14229   0.00216   0.00241   0.11026   0.11268   3.25497
   A30        3.16666  -0.00014   0.00026  -0.00323  -0.00296   3.16370
   A31        3.12303   0.00229   0.00284   0.11614   0.11898   3.24201
   A32        3.14204  -0.00007  -0.00007  -0.00106  -0.00112   3.14091
    D1       -3.10187  -0.00001  -0.00190   0.00471   0.00285  -3.09902
    D2        0.04294  -0.00013  -0.00198   0.00036  -0.00165   0.04129
    D3        0.01059   0.00014  -0.00054   0.00819   0.00765   0.01824
    D4       -3.12779   0.00002  -0.00063   0.00383   0.00315  -3.12463
    D5       -0.02526  -0.00019   0.00140  -0.01163  -0.01025  -0.03552
    D6        3.01645   0.00015   0.00568  -0.00585  -0.00028   3.01617
    D7       -3.13773  -0.00034   0.00005  -0.01515  -0.01509   3.13036
    D8       -0.09602   0.00000   0.00432  -0.00937  -0.00512  -0.10114
    D9        3.11677   0.00007   0.00103   0.00061   0.00164   3.11842
   D10       -0.01347  -0.00015   0.00080  -0.00832  -0.00749  -0.02096
   D11       -0.02806   0.00019   0.00112   0.00502   0.00616  -0.02190
   D12        3.12488  -0.00003   0.00088  -0.00391  -0.00297   3.12191
   D13       -0.00352   0.00006   0.00027   0.00142   0.00172  -0.00180
   D14       -3.13401  -0.00022  -0.00004  -0.00985  -0.00990   3.13927
   D15        3.12684   0.00027   0.00051   0.01017   0.01075   3.13759
[...]
 ! D14   D(4,5,6,16)           179.9967         -DE/DX =    0.0                 !
 ! D15   D(14,5,6,7)           179.6327         -DE/DX =    0.0                 !
 ! D16   D(14,5,6,16)           -0.2146         -DE/DX =    0.0                 !
 ! D17   D(5,6,7,8)              0.2051         -DE/DX =    0.0                 !
 ! D18   D(5,6,7,12)           179.0321         -DE/DX =    0.0                 !
 ! D19   D(16,6,7,8)          -179.9477         -DE/DX =    0.0                 !
 ! D20   D(16,6,7,12)           -1.1207         -DE/DX =    0.0                 !
 ! D21   D(6,7,8,3)              0.9018         -DE/DX =    0.0                 !
 ! D22   D(6,7,8,9)           -174.1186         -DE/DX =    0.0                 !
 ! D23   D(12,7,8,3)          -177.9923         -DE/DX =    0.0                 !
 ! D24   D(12,7,8,9)             6.9873         -DE/DX =    0.0                 !
 ! D25   D(6,7,12,11)         -174.3221         -DE/DX =    0.0                 !
 ! D26   D(6,7,12,19)            1.4417         -DE/DX =    0.0                 !
 ! D27   D(8,7,12,11)            4.5228         -DE/DX =    0.0                 !
 ! D28   D(8,7,12,19)         -179.7134         -DE/DX =    0.0                 !
 ! D29   D(3,8,9,10)           175.235          -DE/DX =    0.0                 !
 ! D30   D(3,8,9,17)            -7.1264         -DE/DX =    0.0                 !
 ! D31   D(7,8,9,10)           -10.0706         -DE/DX =    0.0                 !
 ! D32   D(7,8,9,17)           167.568          -DE/DX =    0.0                 !
 ! D33   D(8,9,10,11)            0.9662         -DE/DX =    0.0                 !
 ! D34   D(17,9,10,11)        -176.5469         -DE/DX =    0.0                 !
 ! D35   D(9,10,11,12)          12.0435         -DE/DX =    0.0                 !
 ! D36   D(9,10,11,18)        -170.844          -DE/DX =    0.0                 !
 ! D37   D(10,11,12,7)         -15.1412         -DE/DX =    0.0                 !
 ! D38   D(10,11,12,19)        169.2853         -DE/DX =    0.0                 !
 ! D39   D(18,11,12,7)         167.6767         -DE/DX =    0.0                 !
 ! D40   D(18,11,12,19)         -7.8967         -DE/DX =    0.0                 !
 --------------------------------------------------------------------------------
 GradGradGradGradGradGradGradGradGradGradGradGradGradGradGradGradGradGrad

                          Input orientation:                          
 ---------------------------------------------------------------------
 Center     Atomic      Atomic             Coordinates (Angstroms)
 Number     Number       Type             X           Y           Z
 ---------------------------------------------------------------------
      1          7           0        0.995735   -0.105177   -0.059256
      2          6           0        2.193966   -0.029004   -0.042382
      3          6           0        4.409441   -1.152195   -0.069815
      4          6           0        3.649790    0.029636   -0.034219
      5          6           0        4.333435    1.316272    0.012025
      6          6           0        5.736162    1.347641    0.042140
      7          6           0        6.521023    0.150062    0.032129
      8          6           0        5.843218   -1.147082   -0.015342
      9          6           0        6.647408   -2.337617    0.105715
     10          6           0        8.061363   -2.389812    0.068108
     11          6           0        8.641210   -1.063700   -0.089649
     12          6           0        7.954098    0.148949    0.041915
     13          7           0        2.964583    3.594135    0.048108
     14          6           0        3.570856    2.558268    0.031561
     15          1           0        3.886345   -2.117816   -0.118598
     16          1           0        6.246705    2.320376    0.076915
     17          1           0        6.065410   -3.260940    0.279006
     18          1           0        9.727311   -0.982372   -0.287092
     19          1           0        8.472429    1.118657    0.082341
 ---------------------------------------------------------------------
                    Distance matrix (angstroms):
                    1          2          3          4          5
     1  N    0.000000
     2  C    1.200768   0.000000
     3  C    3.570678   2.484078   0.000000
     4  C    2.657594   1.457027   1.405369   0.000000
     5  C    3.628476   2.527856   2.470993   1.457718   0.000000
     6  C    4.959093   3.801243   2.832297   2.468991   1.403401
     7  C    5.531935   4.331402   2.482951   2.874523   2.479111
     8  C    4.958385   3.816788   1.434821   2.489206   2.889343
     9  C    6.078850   5.018444   2.538609   3.822196   4.325986
    10  C    7.426902   6.325501   3.858400   5.032512   5.256962
    11  C    7.705386   6.529915   4.232741   5.110062   4.922553
    12  C    6.963736   5.763497   3.777572   4.306634   3.804305
    13  N    4.191992   3.705289   4.962778   3.630694   2.657765
    14  C    3.705864   2.931768   3.805396   2.530718   1.457554
    15  H    3.522763   2.689441   1.099287   2.162089   3.465532
    16  H    5.785718   4.685991   3.931389   3.464651   2.161721
    17  H    5.981209   5.053393   2.703833   4.094047   4.901213
    18  H    8.778485   7.597373   5.325016   6.166390   5.870871
    19  H    7.577518   6.383712   4.657016   4.945443   4.144305
                    6          7          8          9         10
     6  C    0.000000
     7  C    1.431888   0.000000
     8  C    2.497680   1.464328   0.000000
     9  C    3.796780   2.491975   1.441788   0.000000
    10  C    4.401794   2.970674   2.543916   1.415417   0.000000
    11  C    3.777729   2.446067   2.800220   2.374085   1.455913
    12  C    2.521131   1.433109   2.477658   2.809719   2.541161
    13  N    3.567691   4.950773   5.547044   6.982278   7.860355
    14  C    2.480782   3.808273   4.346889   5.782764   6.682027
    15  H    3.931545   3.479586   2.186855   2.778866   4.188032
    16  H    1.099125   2.188040   3.492073   4.675286   5.047666
    17  H    4.626395   3.450141   2.145789   1.105114   2.187960
    18  H    4.633209   3.415346   3.897070   3.387741   2.209625
    19  H    2.746126   2.179147   3.472156   3.908591   3.532497
                   11         12         13         14         15
    11  C    0.000000
    12  C    1.399982   0.000000
    13  N    7.344283   6.063382   0.000000
    14  C    6.232322   5.001773   1.200359   0.000000
    15  H    4.870394   4.659463   5.788248   4.689119   0.000000
    16  H    4.148900   2.762519   3.520741   2.686786   5.030613
    17  H    3.405660   3.905215   7.527316   6.336183   2.492618
    18  H    1.106894   2.128947   8.172592   7.109122   5.952689
    19  H    2.195621   1.100289   6.038670   5.108863   5.616698
                   16         17         18         19
    16  H    0.000000
    17  H    5.587916   0.000000
    18  H    4.811992   4.349927   0.000000
    19  H    2.529428   5.001330   2.474981   0.000000
 Stoichiometry    C12H5N2(1-)
 Framework group  C1[X(C12H5N2)]
 Deg. of freedom    51
 Full point group                 C1      NOp   1
 Largest Abelian subgroup         C1      NOp   1
 Largest concise Abelian subgroup C1      NOp   1
                         Standard orientation:                         
 ---------------------------------------------------------------------
 Center     Atomic      Atomic             Coordinates (Angstroms)
 Number     Number       Type             X           Y           Z
 ---------------------------------------------------------------------
      1          7           0       -3.584600   -2.082300   -0.027771
      2          6           0       -2.559803   -1.456523   -0.021643
      3          6           0       -0.076292   -1.418553   -0.058684
      4          6           0       -1.298943   -0.726358   -0.026261
      5          6           0       -1.293320    0.731040    0.003759
      6          6           0       -0.066656    1.412585    0.021762
      7          6           0        1.185734    0.718485    0.014838
      8          6           0        1.190169   -0.745503   -0.016373
      9          6           0        2.456865   -1.422909    0.107541
     10          6           0        3.732147   -0.810824    0.058410
     11          6           0        3.626781    0.630880   -0.114999
     12          6           0        2.454310    1.385201    0.012521
     13          7           0       -3.565657    2.109210    0.032921
     14          6           0       -2.546654    1.474925    0.019659
     15          1           0       -0.089430   -2.517154   -0.095204
     16          1           0       -0.067991    2.511478    0.044325
     17          1           0        2.372722   -2.509057    0.293233
     18          1           0        4.549169    1.206600   -0.322269
     19          1           0        2.461297    2.485107    0.040693
 ---------------------------------------------------------------------
 Rotational constants (GHZ):      1.5057538      0.4630993      0.3544905

 **********************************************************************

            Population analysis using the SCF density.

 **********************************************************************

 Orbital symmetries:
       Occupied  (A) (A) (A) (A) (A) (A) (A) (A) (A) (A) (A) (A)
                 (A) (A) (A) (A) (A) (A) (A) (A) (A) (A) (A) (A)
                 (A) (A) (A) (A) (A) (A) (A) (A) (A) (A) (A) (A)
                 (A) (A) (A) (A) (A) (A) (A) (A) (A) (A)
       Virtual   (A) (A) (A) (A) (A) (A) (A) (A) (A) (A) (A) (A)
                 (A) (A) (A) (A) (A) (A) (A) (A) (A) (A) (A) (A)
                 (A) (A) (A) (A) (A)
 The electronic state is 1-A.
 Alpha  occ. eigenvalues --  -13.99762 -13.99446  -9.91456  -9.91271  -9.90208
 Alpha  occ. eigenvalues --   -9.89899  -9.88636  -9.88035  -9.86704  -9.86130
 Alpha  occ. eigenvalues --   -9.83351  -9.81129  -9.79370  -9.67836  -0.73333
 Alpha  occ. eigenvalues --   -0.72588  -0.67953  -0.61725  -0.59081  -0.54074
 Alpha  occ. eigenvalues --   -0.51519  -0.44603  -0.43563  -0.40016  -0.35142
 Alpha  occ. eigenvalues --   -0.33663  -0.29721  -0.26820  -0.25570  -0.24162
 Alpha  occ. eigenvalues --   -0.22125  -0.20576  -0.18741  -0.16999  -0.16875
 Alpha  occ. eigenvalues --   -0.15994  -0.15770  -0.15552  -0.14131  -0.13626
 Alpha  occ. eigenvalues --   -0.10592  -0.09056  -0.08044  -0.01877   0.01160
 Alpha  occ. eigenvalues --    0.10770
 Alpha virt. eigenvalues --    0.17134   0.17566   0.24965   0.25501   0.27450
 Alpha virt. eigenvalues --    0.29649   0.30923   0.38557   0.40915   0.44759
 Alpha virt. eigenvalues --    0.46479   0.50937   0.53628   0.56326   0.57860
 Alpha virt. eigenvalues --    0.58567   0.60345   0.63200   0.67111   0.68806
 Alpha virt. eigenvalues --    0.70709   0.76455   0.78865   0.82039   0.83627
 Alpha virt. eigenvalues --    0.92621   0.94232   1.03881   1.08195
          Condensed to atoms (all electrons):
               1          2          3          4          5          6
     1  N    6.586134   0.658536  -0.000153  -0.010934  -0.000044  -0.000001
     2  C    0.658536   4.931309  -0.028700   0.424332  -0.027950   0.000753
     3  C   -0.000153  -0.028700   4.840022   0.505402  -0.029103  -0.008773
     4  C   -0.010934   0.424332   0.505402   4.778870   0.448965  -0.029264
     5  C   -0.000044  -0.027950  -0.029103   0.448965   4.776952   0.508637
     6  C   -0.000001   0.000753  -0.008773  -0.029264   0.508637   4.830767
     7  C    0.000000   0.000014  -0.027476  -0.008174  -0.026893   0.474341
     8  C   -0.000001   0.000809   0.469298  -0.025678  -0.007999  -0.025271
     9  C    0.000000  -0.000005  -0.025730   0.000653   0.000034   0.000738
    10  C    0.000000   0.000000   0.000659  -0.000006   0.000000   0.000011
    11  C    0.000000   0.000000   0.000048   0.000000  -0.000007   0.000748
    12  C    0.000000   0.000000   0.000813   0.000035   0.000725  -0.027784
    13  N   -0.000008  -0.000019  -0.000001  -0.000046  -0.010930  -0.000154
    14  C   -0.000018  -0.002156   0.000745  -0.027504   0.423904  -0.029032
    15  H    0.000061  -0.003590   0.385336  -0.026340   0.001251   0.000025
    16  H    0.000000  -0.000016   0.000022   0.001258  -0.026058   0.385337
    17  H    0.000000   0.000000  -0.003836   0.000006  -0.000001  -0.000021
    18  H    0.000000   0.000000   0.000001   0.000000   0.000000  -0.000019
    19  H    0.000000   0.000000  -0.000016  -0.000001   0.000010  -0.003389
               7          8          9         10         11         12
     1  N    0.000000  -0.000001   0.000000   0.000000   0.000000   0.000000
     2  C    0.000014   0.000809  -0.000005   0.000000   0.000000   0.000000
     3  C   -0.027476   0.469298  -0.025730   0.000659   0.000048   0.000813
     4  C   -0.008174  -0.025678   0.000653  -0.000006   0.000000   0.000035
     5  C   -0.026893  -0.007999   0.000034   0.000000  -0.000007   0.000725
     6  C    0.474341  -0.025271   0.000738   0.000011   0.000748  -0.027784
     7  C    4.808070   0.444099  -0.030138  -0.007259  -0.030283   0.474286
     8  C    0.444099   4.826465   0.457144  -0.019583  -0.012892  -0.029348
     9  C   -0.030138   0.457144   4.931950   0.470009  -0.031009  -0.011657
    10  C   -0.007259  -0.019583   0.470009   5.418483   0.422937  -0.019081
    11  C   -0.030283  -0.012892  -0.031009   0.422937   4.907540   0.503792
    12  C    0.474286  -0.029348  -0.011657  -0.019081   0.503792   4.878848
    13  N   -0.000001   0.000000   0.000000   0.000000   0.000000   0.000000
    14  C    0.000829   0.000014   0.000000   0.000000   0.000000  -0.000005
    15  H    0.001273  -0.024699  -0.003085   0.000015   0.000001  -0.000017
    16  H   -0.024164   0.001222  -0.000016   0.000000   0.000017  -0.003273
    17  H    0.001282  -0.035303   0.380108  -0.031963   0.002158   0.000013
    18  H    0.001477   0.000012   0.002060  -0.031438   0.378767  -0.034877
    19  H   -0.027634   0.001220   0.000073   0.001080  -0.023454   0.381433
              13         14         15         16         17         18
     1  N   -0.000008  -0.000018   0.000061   0.000000   0.000000   0.000000
     2  C   -0.000019  -0.002156  -0.003590  -0.000016   0.000000   0.000000
     3  C   -0.000001   0.000745   0.385336   0.000022  -0.003836   0.000001
     4  C   -0.000046  -0.027504  -0.026340   0.001258   0.000006   0.000000
     5  C   -0.010930   0.423904   0.001251  -0.026058  -0.000001   0.000000
     6  C   -0.000154  -0.029032   0.000025   0.385337  -0.000021  -0.000019
     7  C   -0.000001   0.000829   0.001273  -0.024164   0.001282   0.001477
     8  C    0.000000   0.000014  -0.024699   0.001222  -0.035303   0.000012
     9  C    0.000000   0.000000  -0.003085  -0.000016   0.380108   0.002060
    10  C    0.000000   0.000000   0.000015   0.000000  -0.031963  -0.031438
    11  C    0.000000   0.000000   0.000001   0.000017   0.002158   0.378767
    12  C    0.000000  -0.000005  -0.000017  -0.003273   0.000013  -0.034877
    13  N    6.583764   0.659672   0.000000   0.000060   0.000000   0.000000
    14  C    0.659672   4.928811  -0.000016  -0.003631   0.000000   0.000000
    15  H    0.000000  -0.000016   0.600420   0.000002   0.001297   0.000000
    16  H    0.000060  -0.003631   0.000002   0.601632   0.000000  -0.000002
    17  H    0.000000   0.000000   0.001297   0.000000   0.668625  -0.000025
    18  H    0.000000   0.000000   0.000000  -0.000002  -0.000025   0.665588
    19  H    0.000000   0.000000   0.000000   0.001024   0.000004  -0.003531
              19
     1  N    0.000000
     2  C    0.000000
     3  C   -0.000016
     4  C   -0.000001
     5  C    0.000010
     6  C   -0.003389
     7  C   -0.027634
     8  C    0.001220
     9  C    0.000073
    10  C    0.001080
    11  C   -0.023454
    12  C    0.381433
    13  N    0.000000
    14  C    0.000000
    15  H    0.000000
    16  H    0.001024
    17  H    0.000004
    18  H   -0.003531
    19  H    0.636942
 Mulliken charges:
               1
     1  N   -0.233571
     2  C    0.046685
     3  C   -0.078561
     4  C   -0.031574
     5  C   -0.031493
     6  C   -0.077650
     7  C   -0.023650
     8  C   -0.019509
     9  C   -0.141128
    10  C   -0.203865
    11  C   -0.118364
    12  C   -0.113905
    13  N   -0.232337
    14  C    0.048386
    15  H    0.068066
    16  H    0.066585
    17  H    0.017656
    18  H    0.021987
    19  H    0.036240
 Sum of Mulliken charges =  -1.00000
 Mulliken charges with hydrogens summed into heavy atoms:
               1
     1  N   -0.233571
     2  C    0.046685
     3  C   -0.010495
     4  C   -0.031574
     5  C   -0.031493
     6  C   -0.011065
     7  C   -0.023650
     8  C   -0.019509
     9  C   -0.123472
    10  C   -0.203865
    11  C   -0.096376
    12  C   -0.077665
    13  N   -0.232337
    14  C    0.048386
 Electronic spatial extent (au):  <R**2>=           2877.6132
 Charge=             -1.0000 electrons
 Dipole moment (field-independent basis, Debye):
    X=             -1.4347    Y=              1.7542    Z=             -0.1696  Tot=              2.2725
 Quadrupole moment (field-independent basis, Debye-Ang):
   XX=           -143.1571   YY=            -85.7360   ZZ=            -74.3220
   XY=              7.4900   XZ=             -0.6945   YZ=              0.2191
 Traceless Quadrupole moment (field-independent basis, Debye-Ang):
   XX=            -42.0854   YY=             15.3357   ZZ=             26.7497
   XY=              7.4900   XZ=             -0.6945   YZ=              0.2191
 Octapole moment (field-independent basis, Debye-Ang**2):
  XXX=            -27.6087  YYY=              4.3860  ZZZ=             -0.0380  XYY=             29.8457
  XXY=             32.5169  XXZ=             -3.4998  XZZ=             -7.8894  YZZ=              0.0112
  YYZ=             -0.2788  XYZ=              1.9484
 Hexadecapole moment (field-independent basis, Debye-Ang**3):
 XXXX=          -3863.6364 YYYY=           -933.7879 ZZZZ=            -60.6660 XXXY=            140.8199
 XXXZ=            -15.0187 YYYX=             19.8339 YYYZ=             -0.0834 ZZZX=             -0.2854
 ZZZY=              0.5851 XXYY=           -842.5628 XXZZ=           -465.7495 YYZZ=           -162.6652
 XXYZ=              1.8391 YYXZ=             -0.9171 ZZXY=              0.0975
 N-N= 6.944759882562D+02 E-N=-2.710490093208D+03  KE= 5.546288679538D+02
 1\1\GINC-N051\FOpt\RB3LYP\STO-3G\C12H5N2(1-)\R2532\15-Jun-2021\0\\#N B
 3LYP/STO-3G OPT\\2Naph\\-1,1\N,0.9957354356,-0.105176826,-0.0592557013
 \C,2.1939661135,-0.0290035934,-0.0423818117\C,4.4094409367,-1.15219545
 55,-0.069815444\C,3.6497901558,0.0296359941,-0.0342187803\C,4.33343545
 32,1.3162718872,0.0120247952\C,5.7361621612,1.3476411227,0.0421401321\
 C,6.521023255,0.1500623563,0.0321286441\C,5.8432179674,-1.1470817734,-
 0.0153420344\C,6.647408195,-2.3376174695,0.105714989\C,8.0613626416,-2
 .3898123946,0.0681081444\C,8.6412101603,-1.0637003729,-0.0896485186\C,
 7.9540979682,0.1489488892,0.0419150244\N,2.9645831087,3.59413461,0.048
 1079975\C,3.5708556987,2.558267633,0.0315611842\H,3.8863453992,-2.1178
 156423,-0.1185977497\H,6.2467049963,2.3203759807,0.0769148421\H,6.0654
 096171,-3.2609404635,0.2790057816\H,9.7273112515,-0.9823716482,-0.2870
 924573\H,8.4724294851,1.1186571662,0.0823409628\\Version=ES64L-G09RevD
 .01\State=1-A\HF=-562.5062633\RMSD=5.479e-09\RMSF=5.084e-05\Dipole=-0.
 1773668,0.87417,-0.0611485\Quadrupole=-17.4241144,-2.4621234,19.886237
 8,20.7507733,-0.5279425,0.3787353\PG=C01 [X(C12H5N2)]\\@


 THE LENGTH OF A MEETING IS PROPORTIONAL TO THE
 SQUARE OF THE PARTICIPANTS.
 Job cpu time:       0 days  0 hours  4 minutes 30.4 seconds.
 File lengths (MBytes):  RWF=      5 Int=      0 D2E=      0 Chk=      2 Scr=      1
 Normal termination of Gaussian 09 at Tue Jun 15 11:13:28 2021.
