 Entering Gaussian System, Link 0=/usr/local/apps//g09/g09
 Input=3.com
 Output=3.out
 Initial command:
 /usr/local/apps//g09/l1.exe "/tmp/bnp.472666.sequoia/Gau-29517.inp" -scrdir="/tmp/bnp.472666.sequoia/"
 Entering Link 1 = /usr/local/apps//g09/l1.exe PID=     29520.
  
 Copyright (c) 1988,1990,1992,1993,1995,1998,2003,2009,2013,
            Gaussian, Inc.  All Rights Reserved.
  
 This is part of the Gaussian(R) 09 program.  It is based on
 the Gaussian(R) 03 system (copyright 2003, Gaussian, Inc.),
 the Gaussian(R) 98 system (copyright 1998, Gaussian, Inc.),
 the Gaussian(R) 94 system (copyright 1995, Gaussian, Inc.),
 the Gaussian 92(TM) system (copyright 1992, Gaussian, Inc.),
 the Gaussian 90(TM) system (copyright 1990, Gaussian, Inc.),
 the Gaussian 88(TM) system (copyright 1988, Gaussian, Inc.),
 the Gaussian 86(TM) system (copyright 1986, Carnegie Mellon
 University), and the Gaussian 82(TM) system (copyright 1983,
 Carnegie Mellon University). Gaussian is a federally registered
 trademark of Gaussian, Inc.
  
 This software contains proprietary and confidential information,
 including trade secrets, belonging to Gaussian, Inc.
  
 This software is provided under written license and may be
 used, copied, transmitted, or stored only in accord with that
 written license.
  
 The following legend is applicable only to US Government
 contracts under FAR:
  
                    RESTRICTED RIGHTS LEGEND
  
 Use, reproduction and disclosure by the US Government is
 subject to restrictions as set forth in subparagraphs (a)
 and (c) of the Commercial Computer Software - Restricted
 Rights clause in FAR 52.227-19.
  
 Gaussian, Inc.
 340 Quinnipiac St., Bldg. 40, Wallingford CT 06492
  
  
 ---------------------------------------------------------------
 Warning -- This program may not be used in any manner that
 competes with the business of Gaussian, Inc. or will provide
 assistance to any competitor of Gaussian, Inc.  The licensee
 of this program is prohibited from giving any competitor of
 Gaussian, Inc. access to this program.  By using this program,
 the user acknowledges that Gaussian, Inc. is engaged in the
 business of creating and licensing software in the field of
 computational chemistry and represents and warrants to the
 licensee that it is not a competitor of Gaussian, Inc. and that
 it will not use this program in any manner prohibited above.
 ---------------------------------------------------------------
  

 Cite this work as:
 Gaussian 09, Revision D.01,
 M. J. Frisch, G. W. Trucks, H. B. Schlegel, G. E. Scuseria, 
 M. A. Robb, J. R. Cheeseman, G. Scalmani, V. Barone, B. Mennucci, 
 G. A. Petersson, H. Nakatsuji, M. Caricato, X. Li, H. P. Hratchian, 
 A. F. Izmaylov, J. Bloino, G. Zheng, J. L. Sonnenberg, M. Hada, 
 M. Ehara, K. Toyota, R. Fukuda, J. Hasegawa, M. Ishida, T. Nakajima, 
 Y. Honda, O. Kitao, H. Nakai, T. Vreven, J. A. Montgomery, Jr., 
 J. E. Peralta, F. Ogliaro, M. Bearpark, J. J. Heyd, E. Brothers, 
 K. N. Kudin, V. N. Staroverov, T. Keith, R. Kobayashi, J. Normand, 
 K. Raghavachari, A. Rendell, J. C. Burant, S. S. Iyengar, J. Tomasi, 
 M. Cossi, N. Rega, J. M. Millam, M. Klene, J. E. Knox, J. B. Cross, 
 V. Bakken, C. Adamo, J. Jaramillo, R. Gomperts, R. E. Stratmann, 
 O. Yazyev, A. J. Austin, R. Cammi, C. Pomelli, J. W. Ochterski, 
 R. L. Martin, K. Morokuma, V. G. Zakrzewski, G. A. Voth, 
 P. Salvador, J. J. Dannenberg, S. Dapprich, A. D. Daniels, 
 O. Farkas, J. B. Foresman, J. V. Ortiz, J. Cioslowski, 
 and D. J. Fox, Gaussian, Inc., Wallingford CT, 2013.
 
 ******************************************
 Gaussian 09:  ES64L-G09RevD.01 24-Apr-2013
                15-Jun-2021 
 ******************************************
 -------------------
 #N B3LYP/STO-3G OPT
 -------------------
 1/14=-1,18=20,19=15,26=3,38=1/1,3;
 2/9=110,12=2,17=6,18=5,40=1/2;
 3/6=3,11=2,16=1,25=1,30=1,71=1,74=-5/1,2,3;
 4//1;
 5/5=2,38=5/2;
 6/7=2,8=2,9=2,10=2,28=1/1;
 7//1,2,3,16;
 1/14=-1,18=20,19=15,26=3/3(2);
 2/9=110/2;
 99//99;
 2/9=110/2;
 3/6=3,11=2,16=1,25=1,30=1,71=1,74=-5/1,2,3;
 4/5=5,16=3,69=1/1;
 5/5=2,38=5/2;
 7//1,2,3,16;
 1/14=-1,18=20,19=15,26=3/3(-5);
 2/9=110/2;
 6/7=2,8=2,9=2,10=2,19=2,28=1/1;
 99/9=1/99;
 -----
 1Naph
 -----
 Symbolic Z-matrix:
 Charge = -1 Multiplicity = 1
 N                     1.05238  -0.0923   -0.07519 
 C                     2.21198  -0.07142  -0.07502 
 C                     3.65075  -0.06292  -0.07487 
 C                     4.33434   1.16647  -0.07402 
 C                     5.73199   1.18561  -0.07391 
 C                     6.45007  -0.00762  -0.07478 
 C                     5.79111  -1.24341  -0.07481 
 C                     4.37295  -1.2917   -0.07501 
 C                     3.76482  -2.57196  -0.07499 
 C                     4.52343  -3.74244  -0.07498 
 C                     5.90818  -3.67384  -0.07485 
 C                     6.53871  -2.43189  -0.07506 
 N                     3.11373   3.45735  -0.07177 
 C                     3.64118   2.42444  -0.07263 
 H                     6.27319   2.13136  -0.07318 
 H                     7.53883   0.03709  -0.07409 
 H                     2.68218  -2.68731  -0.07498 
 H                     6.49382  -4.58884  -0.07487 
 H                     7.62703  -2.40115  -0.07452 
 

 GradGradGradGradGradGradGradGradGradGradGradGradGradGradGradGradGradGrad
 Berny optimization.
 Initialization pass.
                           ----------------------------
                           !    Initial Parameters    !
                           ! (Angstroms and Degrees)  !
 --------------------------                            --------------------------
 ! Name  Definition              Value          Derivative Info.                !
 --------------------------------------------------------------------------------
 ! R1    R(1,2)                  1.1598         estimate D2E/DX2                !
 ! R2    R(2,3)                  1.4388         estimate D2E/DX2                !
 ! R3    R(3,4)                  1.4067         estimate D2E/DX2                !
 ! R4    R(3,8)                  1.4253         estimate D2E/DX2                !
 ! R5    R(4,5)                  1.3978         estimate D2E/DX2                !
 ! R6    R(4,14)                 1.4363         estimate D2E/DX2                !
 ! R7    R(5,6)                  1.3926         estimate D2E/DX2                !
 ! R8    R(5,15)                 1.0897         estimate D2E/DX2                !
 ! R9    R(6,7)                  1.4005         estimate D2E/DX2                !
 ! R10   R(6,16)                 1.0897         estimate D2E/DX2                !
 ! R11   R(7,8)                  1.419          estimate D2E/DX2                !
 ! R12   R(7,12)                 1.4041         estimate D2E/DX2                !
 ! R13   R(8,9)                  1.4174         estimate D2E/DX2                !
 ! R14   R(9,10)                 1.3948         estimate D2E/DX2                !
 ! R15   R(9,17)                 1.0888         estimate D2E/DX2                !
 ! R16   R(10,11)                1.3864         estimate D2E/DX2                !
 ! R17   R(11,12)                1.3928         estimate D2E/DX2                !
 ! R18   R(11,18)                1.0864         estimate D2E/DX2                !
 ! R19   R(12,19)                1.0888         estimate D2E/DX2                !
 ! R20   R(13,14)                1.1598         estimate D2E/DX2                !
 ! A1    A(2,3,4)              119.4143         estimate D2E/DX2                !
 ! A2    A(2,3,8)              120.1059         estimate D2E/DX2                !
 ! A3    A(4,3,8)              120.4798         estimate D2E/DX2                !
 ! A4    A(3,4,5)              119.8604         estimate D2E/DX2                !
 ! A5    A(3,4,14)             122.0688         estimate D2E/DX2                !
 ! A6    A(5,4,14)             118.0708         estimate D2E/DX2                !
 ! A7    A(4,5,6)              120.2547         estimate D2E/DX2                !
 ! A8    A(4,5,15)             120.5647         estimate D2E/DX2                !
 ! A9    A(6,5,15)             119.1806         estimate D2E/DX2                !
 ! A10   A(5,6,7)              120.8928         estimate D2E/DX2                !
 ! A11   A(5,6,16)             118.6878         estimate D2E/DX2                !
 ! A12   A(7,6,16)             120.4194         estimate D2E/DX2                !
 ! A13   A(6,7,8)              120.0181         estimate D2E/DX2                !
 ! A14   A(6,7,12)             119.7606         estimate D2E/DX2                !
 ! A15   A(8,7,12)             120.2212         estimate D2E/DX2                !
 ! A16   A(3,8,7)              118.4941         estimate D2E/DX2                !
 ! A17   A(3,8,9)              124.1477         estimate D2E/DX2                !
 ! A18   A(7,8,9)              117.3582         estimate D2E/DX2                !
 ! A19   A(8,9,10)             121.644          estimate D2E/DX2                !
 ! A20   A(8,9,17)             121.4896         estimate D2E/DX2                !
 ! A21   A(10,9,17)            116.8664         estimate D2E/DX2                !
 ! A22   A(9,10,11)            120.1119         estimate D2E/DX2                !
 ! A23   A(10,11,12)           119.7527         estimate D2E/DX2                !
 ! A24   A(10,11,18)           119.7849         estimate D2E/DX2                !
 ! A25   A(12,11,18)           120.4624         estimate D2E/DX2                !
 ! A26   A(7,12,11)            120.9119         estimate D2E/DX2                !
 ! A27   A(7,12,19)            120.5536         estimate D2E/DX2                !
 ! A28   A(11,12,19)           118.5345         estimate D2E/DX2                !
 ! A29   L(1,2,3,13,-1)        180.6931         estimate D2E/DX2                !
 ! A30   L(4,14,13,1,-1)       181.8045         estimate D2E/DX2                !
 ! A31   L(1,2,3,13,-2)        180.0019         estimate D2E/DX2                !
 ! A32   L(4,14,13,1,-2)       180.0144         estimate D2E/DX2                !
 ! D1    D(2,3,4,5)           -179.998          estimate D2E/DX2                !
 ! D2    D(2,3,4,14)             0.0311         estimate D2E/DX2                !
 ! D3    D(8,3,4,5)              0.0285         estimate D2E/DX2                !
 ! D4    D(8,3,4,14)          -179.9424         estimate D2E/DX2                !
 ! D5    D(2,3,8,7)           -179.9979         estimate D2E/DX2                !
 ! D6    D(2,3,8,9)             -0.015          estimate D2E/DX2                !
 ! D7    D(4,3,8,7)             -0.0246         estimate D2E/DX2                !
 ! D8    D(4,3,8,9)            179.9583         estimate D2E/DX2                !
 ! D9    D(3,4,5,6)              0.0067         estimate D2E/DX2                !
 ! D10   D(3,4,5,15)          -179.9954         estimate D2E/DX2                !
 ! D11   D(14,4,5,6)           179.9788         estimate D2E/DX2                !
 ! D12   D(14,4,5,15)           -0.0233         estimate D2E/DX2                !
 ! D13   D(4,5,6,7)             -0.0461         estimate D2E/DX2                !
 ! D14   D(4,5,6,16)          -179.9652         estimate D2E/DX2                !
 ! D15   D(15,5,6,7)           179.956          estimate D2E/DX2                !
 ! D16   D(15,5,6,16)            0.037          estimate D2E/DX2                !
 ! D17   D(5,6,7,8)              0.0496         estimate D2E/DX2                !
 ! D18   D(5,6,7,12)          -179.9701         estimate D2E/DX2                !
 ! D19   D(16,6,7,8)           179.9673         estimate D2E/DX2                !
 ! D20   D(16,6,7,12)           -0.0524         estimate D2E/DX2                !
 ! D21   D(6,7,8,3)             -0.014          estimate D2E/DX2                !
 ! D22   D(6,7,8,9)           -179.9982         estimate D2E/DX2                !
 ! D23   D(12,7,8,3)          -179.9943         estimate D2E/DX2                !
 ! D24   D(12,7,8,9)             0.0216         estimate D2E/DX2                !
 ! D25   D(6,7,12,11)          179.9882         estimate D2E/DX2                !
 ! D26   D(6,7,12,19)            0.0434         estimate D2E/DX2                !
 ! D27   D(8,7,12,11)           -0.0315         estimate D2E/DX2                !
 ! D28   D(8,7,12,19)         -179.9763         estimate D2E/DX2                !
 ! D29   D(3,8,9,10)          -179.9927         estimate D2E/DX2                !
 ! D30   D(3,8,9,17)             0.0072         estimate D2E/DX2                !
 ! D31   D(7,8,9,10)            -0.0095         estimate D2E/DX2                !
 ! D32   D(7,8,9,17)           179.9904         estimate D2E/DX2                !
 ! D33   D(8,9,10,11)            0.0067         estimate D2E/DX2                !
 ! D34   D(17,9,10,11)        -179.9932         estimate D2E/DX2                !
 ! D35   D(9,10,11,12)          -0.0157         estimate D2E/DX2                !
 ! D36   D(9,10,11,18)        -179.9984         estimate D2E/DX2                !
 ! D37   D(10,11,12,7)           0.0282         estimate D2E/DX2                !
 ! D38   D(10,11,12,19)        179.9741         estimate D2E/DX2                !
 ! D39   D(18,11,12,7)        -179.9892         estimate D2E/DX2                !
 ! D40   D(18,11,12,19)         -0.0433         estimate D2E/DX2                !
 --------------------------------------------------------------------------------
 Trust Radius=3.00D-01 FncErr=1.00D-07 GrdErr=1.00D-06
 Number of steps in this run=    102 maximum allowed number of steps=    114.
 GradGradGradGradGradGradGradGradGradGradGradGradGradGradGradGradGradGrad

                          Input orientation:                          
 ---------------------------------------------------------------------
 Center     Atomic      Atomic             Coordinates (Angstroms)
 Number     Number       Type             X           Y           Z
 ---------------------------------------------------------------------
      1          7           0        1.052380   -0.092300   -0.075190
      2          6           0        2.211980   -0.071420   -0.075020
      3          6           0        3.650750   -0.062920   -0.074870
      4          6           0        4.334340    1.166470   -0.074020
      5          6           0        5.731990    1.185610   -0.073910
      6          6           0        6.450070   -0.007620   -0.074780
      7          6           0        5.791110   -1.243410   -0.074810
      8          6           0        4.372950   -1.291700   -0.075010
      9          6           0        3.764820   -2.571960   -0.074990
     10          6           0        4.523430   -3.742440   -0.074980
     11          6           0        5.908180   -3.673840   -0.074850
     12          6           0        6.538710   -2.431890   -0.075060
     13          7           0        3.113730    3.457350   -0.071770
     14          6           0        3.641180    2.424440   -0.072630
     15          1           0        6.273190    2.131360   -0.073180
     16          1           0        7.538830    0.037090   -0.074090
     17          1           0        2.682180   -2.687310   -0.074980
     18          1           0        6.493820   -4.588840   -0.074870
     19          1           0        7.627030   -2.401150   -0.074520
 ---------------------------------------------------------------------
                    Distance matrix (angstroms):
                    1          2          3          4          5
     1  N    0.000000
     2  C    1.159788   0.000000
     3  C    2.598536   1.438795   0.000000
     4  C    3.515077   2.456987   1.406661   0.000000
     5  C    4.850959   3.737726   2.427012   1.397781   0.000000
     6  C    5.398354   4.238570   2.799866   2.419670   1.392637
     7  C    4.876537   3.766130   2.444319   2.815972   2.429740
     8  C    3.530545   2.481708   1.425298   2.458473   2.825607
     9  C    3.675057   2.943469   2.511632   3.781562   4.241355
    10  C    5.037034   4.338109   3.781592   4.912551   5.074081
    11  C    6.033757   5.161330   4.258490   5.089752   4.862643
    12  C    5.964352   4.928733   3.735282   4.219887   3.706360
    13  N    4.104777   3.642167   3.560997   2.595771   3.466424
    14  C    3.610522   2.876097   2.487379   1.436301   2.430265
    15  H    5.674639   4.620137   3.419365   2.165676   1.089652
    16  H    6.487740   5.327955   3.889366   3.397684   2.140974
    17  H    3.064364   2.657813   2.797419   4.193001   4.929589
    18  H    7.058905   6.224246   5.344810   6.147109   5.824488
    19  H    6.968272   5.894948   4.612822   4.854866   4.056603
                    6          7          8          9         10
     6  C    0.000000
     7  C    1.400502   0.000000
     8  C    2.441985   1.418982   0.000000
     9  C    3.713005   2.422993   1.417352   0.000000
    10  C    4.202478   2.802171   2.455356   1.394816   0.000000
    11  C    3.706051   2.433248   2.833994   2.410007   1.386448
    12  C    2.425890   1.404062   2.447560   2.777424   2.403933
    13  N    4.810113   5.409761   4.913158   6.064364   7.336501
    14  C    3.715479   4.251509   3.787504   4.997930   6.229669
    15  H    2.146282   3.409029   3.915132   5.330398   6.128882
    16  H    1.089678   2.166612   3.433436   4.588060   4.835027
    17  H    4.623606   3.427870   2.192357   1.088768   2.122145
    18  H    4.581429   3.418436   3.920360   3.393412   2.144488
    19  H    2.667250   2.170476   3.438010   3.865985   3.381034
                   11         12         13         14         15
    11  C    0.000000
    12  C    1.392842   0.000000
    13  N    7.659166   6.812756   0.000000
    14  C    6.506021   5.655053   1.159788   0.000000
    15  H    5.816664   4.570969   3.426432   2.648277   0.000000
    16  H    4.053396   2.663851   5.592825   4.570680   2.447001
    17  H    3.373473   3.864979   6.159796   5.200930   6.009570
    18  H    1.086370   2.157417   8.727324   7.571239   6.723821
    19  H    2.138735   1.088754   7.395398   6.258860   4.730384
                   16         17         18         19
    16  H    0.000000
    17  H    5.568609   0.000000
    18  H    4.742497   4.259626   0.000000
    19  H    2.439835   4.953123   2.463768   0.000000
 Stoichiometry    C12H5N2(1-)
 Framework group  C1[X(C12H5N2)]
 Deg. of freedom    51
 Full point group                 C1      NOp   1
 Largest Abelian subgroup         C1      NOp   1
 Largest concise Abelian subgroup C1      NOp   1
                         Standard orientation:                         
 ---------------------------------------------------------------------
 Center     Atomic      Atomic             Coordinates (Angstroms)
 Number     Number       Type             X           Y           Z
 ---------------------------------------------------------------------
      1          7           0        1.851400    2.830977   -0.000591
      2          6           0        1.358339    1.781216   -0.000557
      3          6           0        0.730956    0.486411   -0.000568
      4          6           0        1.532419   -0.669596   -0.000286
      5          6           0        0.932732   -1.932199   -0.000337
      6          6           0       -0.454921   -2.049915   -0.000808
      7          6           0       -1.272998   -0.913185   -0.000271
      8          6           0       -0.690415    0.380688   -0.000296
      9          6           0       -1.570831    1.491434    0.000304
     10          6           0       -2.955957    1.327308    0.000699
     11          6           0       -3.505569    0.054451    0.000650
     12          6           0       -2.669417   -1.059486   -0.000127
     13          7           0        4.126824   -0.585400    0.001181
     14          6           0        2.967167   -0.602816    0.000677
     15          1           0        1.542521   -2.835249   -0.000046
     16          1           0       -0.895333   -3.046627   -0.000256
     17          1           0       -1.196507    2.513832    0.000479
     18          1           0       -4.585104   -0.067221    0.000932
     19          1           0       -3.122170   -2.049638    0.000281
 ---------------------------------------------------------------------
 Rotational constants (GHZ):      1.3888777      0.5680454      0.4031562
 Standard basis: STO-3G (5D, 7F)
 There are    75 symmetry adapted cartesian basis functions of A   symmetry.
 There are    75 symmetry adapted basis functions of A   symmetry.
    75 basis functions,   225 primitive gaussians,    75 cartesian basis functions
    46 alpha electrons       46 beta electrons
       nuclear repulsion energy       717.1343373671 Hartrees.
 NAtoms=   19 NActive=   19 NUniq=   19 SFac= 1.00D+00 NAtFMM=   60 NAOKFM=F Big=F
 Integral buffers will be    131072 words long.
 Raffenetti 2 integral format.
 Two-electron integral symmetry is turned on.
 One-electron integrals computed using PRISM.
 NBasis=    75 RedAO= T EigKep=  1.54D-01  NBF=    75
 NBsUse=    75 1.00D-06 EigRej= -1.00D+00 NBFU=    75
 ExpMin= 1.69D-01 ExpMax= 9.91D+01 ExpMxC= 9.91D+01 IAcc=1 IRadAn=         1 AccDes= 0.00D+00
 Harris functional with IExCor=  402 and IRadAn=       1 diagonalized for initial guess.
 HarFok:  IExCor=  402 AccDes= 0.00D+00 IRadAn=         1 IDoV= 1 UseB2=F ITyADJ=14
 ICtDFT=  3500011 ScaDFX=  1.000000  1.000000  1.000000  1.000000
 FoFCou: FMM=F IPFlag=           0 FMFlag=      100000 FMFlg1=           0
         NFxFlg=           0 DoJE=T BraDBF=F KetDBF=T FulRan=T
         wScrn=  0.000000 ICntrl=     500 IOpCl=  0 I1Cent=   200000004 NGrid=           0
         NMat0=    1 NMatS0=      1 NMatT0=    0 NMatD0=    1 NMtDS0=    0 NMtDT0=    0
 Petite list used in FoFCou.
 Keep R1 ints in memory in canonical form, NReq=4993994.
 Requested convergence on RMS density matrix=1.00D-08 within 128 cycles.
 Requested convergence on MAX density matrix=1.00D-06.
 Requested convergence on             energy=1.00D-06.
 No special actions if energy rises.
 Integral accuracy reduced to 1.0D-05 until final iterations.
 EnCoef did     5 forward-backward iterations
 EnCoef did     9 forward-backward iterations
 EnCoef did   100 forward-backward iterations
 EnCoef did   100 forward-backward iterations
 Rare condition: small coef for last iteration:  0.233D-14
 EnCoef did   100 forward-backward iterations
 Rare condition: small coef for last iteration:  0.000D+00
 EnCoef did   100 forward-backward iterations
 Rare condition: small coef for last iteration:  0.000D+00
 EnCoef did   100 forward-backward iterations
 Rare condition: small coef for last iteration:  0.999D-16
 Initial convergence to 1.0D-05 achieved.  Increase integral accuracy.
 EnCoef did     4 forward-backward iterations
 EnCoef did     5 forward-backward iterations
 Rare condition: small coef for last iteration:  0.222D-15
 EnCoef did     5 forward-backward iterations
 EnCoef did     6 forward-backward iterations
 EnCoef did     5 forward-backward iterations
 SCF Done:  E(RB3LYP) =  -562.473872141     A.U. after   38 cycles
            NFock= 38  Conv=0.29D-08     -V/T= 2.0130

 **********************************************************************

            Population analysis using the SCF density.

 **********************************************************************

 Orbital symmetries:
       Occupied  (A) (A) (A) (A) (A) (A) (A) (A) (A) (A) (A) (A)
                 (A) (A) (A) (A) (A) (A) (A) (A) (A) (A) (A) (A)
                 (A) (A) (A) (A) (A) (A) (A) (A) (A) (A) (A) (A)
                 (A) (A) (A) (A) (A) (A) (A) (A) (A) (A)
       Virtual   (A) (A) (A) (A) (A) (A) (A) (A) (A) (A) (A) (A)
                 (A) (A) (A) (A) (A) (A) (A) (A) (A) (A) (A) (A)
                 (A) (A) (A) (A) (A)
 The electronic state is 1-A.
 Alpha  occ. eigenvalues --  -13.99099 -13.97998  -9.90698  -9.89779  -9.89749
 Alpha  occ. eigenvalues --   -9.88701  -9.87467  -9.86746  -9.86643  -9.86423
 Alpha  occ. eigenvalues --   -9.83416  -9.81285  -9.79665  -9.67676  -0.74390
 Alpha  occ. eigenvalues --   -0.73067  -0.68790  -0.62633  -0.59326  -0.54941
 Alpha  occ. eigenvalues --   -0.51216  -0.46563  -0.42483  -0.40390  -0.35008
 Alpha  occ. eigenvalues --   -0.34174  -0.30209  -0.27563  -0.24714  -0.23792
 Alpha  occ. eigenvalues --   -0.22587  -0.21753  -0.19535  -0.17386  -0.16942
 Alpha  occ. eigenvalues --   -0.16133  -0.15065  -0.14911  -0.13734  -0.13320
 Alpha  occ. eigenvalues --   -0.11486  -0.10745  -0.07460  -0.02870   0.01210
 Alpha  occ. eigenvalues --    0.12756
 Alpha virt. eigenvalues --    0.15689   0.22027   0.26358   0.27334   0.28707
 Alpha virt. eigenvalues --    0.32133   0.33354   0.40605   0.44031   0.47822
 Alpha virt. eigenvalues --    0.49415   0.52171   0.55710   0.58317   0.60682
 Alpha virt. eigenvalues --    0.61778   0.64125   0.65016   0.70984   0.71817
 Alpha virt. eigenvalues --    0.74090   0.79204   0.81424   0.86165   0.88775
 Alpha virt. eigenvalues --    0.98291   0.99443   1.12469   1.17018
          Condensed to atoms (all electrons):
               1          2          3          4          5          6
     1  N    6.575066   0.684755  -0.011244  -0.000126  -0.000001   0.000000
     2  C    0.684755   4.886403   0.432957  -0.032703   0.000966   0.000025
     3  C   -0.011244   0.432957   4.782564   0.486680  -0.031092  -0.010617
     4  C   -0.000126  -0.032703   0.486680   4.764131   0.485339  -0.030748
     5  C   -0.000001   0.000966  -0.031092   0.485339   4.830271   0.518741
     6  C    0.000000   0.000025  -0.010617  -0.030748   0.518741   4.834919
     7  C   -0.000002   0.000927  -0.029113  -0.009770  -0.030056   0.478827
     8  C   -0.000069  -0.029416   0.462360  -0.027802  -0.009571  -0.028213
     9  C   -0.000127  -0.004408  -0.027556   0.000726   0.000044   0.000980
    10  C    0.000001   0.000020   0.000893  -0.000009   0.000000   0.000029
    11  C    0.000000   0.000000   0.000029   0.000000  -0.000011   0.000979
    12  C    0.000000  -0.000007   0.000963   0.000040   0.000997  -0.034799
    13  N   -0.000012  -0.000025  -0.000069  -0.011463  -0.000237  -0.000001
    14  C   -0.000027  -0.003183  -0.029034   0.431331  -0.033200   0.001050
    15  H    0.000000  -0.000020   0.001356  -0.025478   0.390991  -0.026017
    16  H    0.000000   0.000001   0.000036   0.001509  -0.027309   0.390161
    17  H   -0.000287   0.001578  -0.003096   0.000005  -0.000001  -0.000022
    18  H    0.000000   0.000000   0.000001   0.000000   0.000000  -0.000022
    19  H    0.000000   0.000000  -0.000017  -0.000001   0.000031  -0.004672
               7          8          9         10         11         12
     1  N   -0.000002  -0.000069  -0.000127   0.000001   0.000000   0.000000
     2  C    0.000927  -0.029416  -0.004408   0.000020   0.000000  -0.000007
     3  C   -0.029113   0.462360  -0.027556   0.000893   0.000029   0.000963
     4  C   -0.009770  -0.027802   0.000726  -0.000009   0.000000   0.000040
     5  C   -0.030056  -0.009571   0.000044   0.000000  -0.000011   0.000997
     6  C    0.478827  -0.028213   0.000980   0.000029   0.000979  -0.034799
     7  C    4.784286   0.465900  -0.033201  -0.012052  -0.030336   0.490278
     8  C    0.465900   4.800635   0.469178  -0.025308  -0.010860  -0.029008
     9  C   -0.033201   0.469178   4.895629   0.493440  -0.030781  -0.013681
    10  C   -0.012052  -0.025308   0.493440   5.365443   0.467809  -0.029137
    11  C   -0.030336  -0.010860  -0.030781   0.467809   4.868029   0.501898
    12  C    0.490278  -0.029008  -0.013681  -0.029137   0.501898   4.869530
    13  N    0.000000  -0.000001   0.000000   0.000000   0.000000   0.000000
    14  C    0.000018   0.000859  -0.000006   0.000000   0.000000   0.000000
    15  H    0.001483   0.000037   0.000001   0.000000   0.000000  -0.000022
    16  H   -0.025137   0.001407  -0.000021  -0.000001   0.000031  -0.004483
    17  H    0.001312  -0.030271   0.387097  -0.036372   0.002034  -0.000003
    18  H    0.001402  -0.000031   0.002035  -0.034926   0.386058  -0.031999
    19  H   -0.026740   0.001325   0.000087   0.001671  -0.027174   0.383713
              13         14         15         16         17         18
     1  N   -0.000012  -0.000027   0.000000   0.000000  -0.000287   0.000000
     2  C   -0.000025  -0.003183  -0.000020   0.000001   0.001578   0.000000
     3  C   -0.000069  -0.029034   0.001356   0.000036  -0.003096   0.000001
     4  C   -0.011463   0.431331  -0.025478   0.001509   0.000005   0.000000
     5  C   -0.000237  -0.033200   0.390991  -0.027309  -0.000001   0.000000
     6  C   -0.000001   0.001050  -0.026017   0.390161  -0.000022  -0.000022
     7  C    0.000000   0.000018   0.001483  -0.025137   0.001312   0.001402
     8  C   -0.000001   0.000859   0.000037   0.001407  -0.030271  -0.000031
     9  C    0.000000  -0.000006   0.000001  -0.000021   0.387097   0.002035
    10  C    0.000000   0.000000   0.000000  -0.000001  -0.036372  -0.034926
    11  C    0.000000   0.000000   0.000000   0.000031   0.002034   0.386058
    12  C    0.000000   0.000000  -0.000022  -0.004483  -0.000003  -0.031999
    13  N    6.575747   0.685565   0.000050   0.000000   0.000000   0.000000
    14  C    0.685565   4.892845  -0.003995  -0.000021   0.000000   0.000000
    15  H    0.000050  -0.003995   0.605226  -0.004200   0.000000   0.000000
    16  H    0.000000  -0.000021  -0.004200   0.610854   0.000001  -0.000002
    17  H    0.000000   0.000000   0.000000   0.000001   0.638539  -0.000017
    18  H    0.000000   0.000000   0.000000  -0.000002  -0.000017   0.650765
    19  H    0.000000   0.000000  -0.000002   0.000923   0.000004  -0.003288
              19
     1  N    0.000000
     2  C    0.000000
     3  C   -0.000017
     4  C   -0.000001
     5  C    0.000031
     6  C   -0.004672
     7  C   -0.026740
     8  C    0.001325
     9  C    0.000087
    10  C    0.001671
    11  C   -0.027174
    12  C    0.383713
    13  N    0.000000
    14  C    0.000000
    15  H   -0.000002
    16  H    0.000923
    17  H    0.000004
    18  H   -0.003288
    19  H    0.636693
 Mulliken charges:
               1
     1  N   -0.247925
     2  C    0.062130
     3  C   -0.025999
     4  C   -0.031661
     5  C   -0.095901
     6  C   -0.090600
     7  C   -0.028027
     8  C   -0.011148
     9  C   -0.139437
    10  C   -0.191503
    11  C   -0.127706
    12  C   -0.104280
    13  N   -0.249553
    14  C    0.057799
    15  H    0.060592
    16  H    0.056252
    17  H    0.039498
    18  H    0.030023
    19  H    0.037447
 Sum of Mulliken charges =  -1.00000
 Mulliken charges with hydrogens summed into heavy atoms:
               1
     1  N   -0.247925
     2  C    0.062130
     3  C   -0.025999
     4  C   -0.031661
     5  C   -0.035310
     6  C   -0.034348
     7  C   -0.028027
     8  C   -0.011148
     9  C   -0.099939
    10  C   -0.191503
    11  C   -0.097683
    12  C   -0.066833
    13  N   -0.249553
    14  C    0.057799
 Electronic spatial extent (au):  <R**2>=           2564.1550
 Charge=             -1.0000 electrons
 Dipole moment (field-independent basis, Debye):
    X=              0.0239    Y=             -5.1415    Z=             -0.0335  Tot=              5.1417
 Quadrupole moment (field-independent basis, Debye-Ang):
   XX=           -122.3925   YY=            -90.0435   ZZ=            -74.1290
   XY=              4.1822   XZ=              0.2415   YZ=             -0.2524
 Traceless Quadrupole moment (field-independent basis, Debye-Ang):
   XX=            -26.8708   YY=              5.4782   ZZ=             21.3927
   XY=              4.1822   XZ=              0.2415   YZ=             -0.2524
 Octapole moment (field-independent basis, Debye-Ang**2):
  XXX=            -37.5964  YYY=            -50.4713  ZZZ=             -0.0306  XYY=             -3.7961
  XXY=            -31.6780  XXZ=             -0.7461  XZZ=              6.4953  YZZ=              2.6196
  YYZ=             -0.6033  XYZ=              0.9414
 Hexadecapole moment (field-independent basis, Debye-Ang**3):
 XXXX=          -2989.1054 YYYY=          -1094.7900 ZZZZ=            -58.3276 XXXY=            139.2713
 XXXZ=              1.8360 YYYX=            -42.4082 YYYZ=             -0.8376 ZZZX=              0.1834
 ZZZY=             -0.1647 XXYY=           -644.4411 XXZZ=           -386.1632 YYZZ=           -175.6800
 XXYZ=             -2.8455 YYXZ=              1.7132 ZZXY=              2.7198
 N-N= 7.171343373671D+02 E-N=-2.756259281649D+03  KE= 5.552493998763D+02
 Calling FoFJK, ICntrl=      2127 FMM=F ISym2X=0 I1Cent= 0 IOpClX= 0 NMat=1 NMatS=1 NMatT=0.
 ***** Axes restored to original set *****
 -------------------------------------------------------------------
 Center     Atomic                   Forces (Hartrees/Bohr)
 Number     Number              X              Y              Z
 -------------------------------------------------------------------
      1        7          -0.110083717   -0.000987423    0.000930942
      2        6           0.096187660   -0.000139618   -0.003577388
      3        6          -0.012194224    0.003935546   -0.000880136
      4        6          -0.010542154    0.011600192    0.002667278
      5        6           0.035893705   -0.006828599   -0.001985323
      6        6           0.004745928    0.039849235    0.000098750
      7        6           0.021194847   -0.005969900   -0.001872525
      8        6          -0.025707448   -0.009718826   -0.010281193
      9        6           0.014484901   -0.018075855   -0.005387681
     10        6          -0.051091907   -0.037892782    0.012518588
     11        6           0.012242814    0.024392531   -0.005301013
     12        6           0.018870953   -0.030474962    0.010169573
     13        7          -0.049385618    0.096779882   -0.000992048
     14        6           0.038520589   -0.082320282    0.003528331
     15        1           0.000047550    0.006582489    0.000005443
     16        1           0.006293248   -0.002262737   -0.000086819
     17        1          -0.012135928    0.011526687    0.005861045
     18        1           0.013147688   -0.008976760   -0.008876046
     19        1           0.009511114    0.008981181    0.003460223
 -------------------------------------------------------------------
 Cartesian Forces:  Max     0.110083717 RMS     0.030787499

 GradGradGradGradGradGradGradGradGradGradGradGradGradGradGradGradGradGrad
 Berny optimization.
 FormGI is forming the generalized inverse of G from B-inverse, IUseBI=4.
 Internal  Forces:  Max     0.110084370 RMS     0.020204851
 Search for a local minimum.
 Step number   1 out of a maximum of  102
 All quantities printed in internal units (Hartrees-Bohrs-Radians)
 Mixed Optimization -- RFO/linear search
 Second derivative matrix not updated -- first step.
 ITU=  0
     Eigenvalues ---    0.01576   0.01576   0.01836   0.01853   0.01888
     Eigenvalues ---    0.01937   0.01968   0.02016   0.02055   0.02062
     Eigenvalues ---    0.02105   0.02125   0.02131   0.02156   0.02192
     Eigenvalues ---    0.02215   0.04869   0.04869   0.16000   0.16000
     Eigenvalues ---    0.16000   0.16000   0.16000   0.22328   0.22591
     Eigenvalues ---    0.23299   0.24406   0.24688   0.25000   0.25000
     Eigenvalues ---    0.25000   0.34850   0.34853   0.34955   0.34957
     Eigenvalues ---    0.35236   0.38262   0.39751   0.39994   0.40097
     Eigenvalues ---    0.40700   0.42901   0.43656   0.44966   0.45109
     Eigenvalues ---    0.45736   0.45987   0.46357   0.47371   1.27933
     Eigenvalues ---    1.27933
 RFO step:  Lambda=-5.35209527D-02 EMin= 1.57557072D-02
 Linear search not attempted -- first point.
 Maximum step size (   0.300) exceeded in Quadratic search.
    -- Step size scaled by   0.971
 Iteration  1 RMS(Cart)=  0.05648703 RMS(Int)=  0.00179956
 Iteration  2 RMS(Cart)=  0.00216617 RMS(Int)=  0.00060238
 Iteration  3 RMS(Cart)=  0.00000402 RMS(Int)=  0.00060238
 Iteration  4 RMS(Cart)=  0.00000000 RMS(Int)=  0.00060238
 Variable       Old X    -DE/DX   Delta X   Delta X   Delta X     New X
                                 (Linear)    (Quad)   (Total)
    R1        2.19168   0.11008   0.00000   0.08022   0.08022   2.27190
    R2        2.71893   0.01390   0.00000   0.02994   0.02994   2.74887
    R3        2.65820   0.02730   0.00000   0.05316   0.05319   2.71139
    R4        2.69342   0.02876   0.00000   0.06020   0.06031   2.75374
    R5        2.64142   0.03537   0.00000   0.06619   0.06611   2.70754
    R6        2.71422   0.01791   0.00000   0.03828   0.03828   2.75249
    R7        2.63170   0.00176   0.00000   0.00254   0.00243   2.63413
    R8        2.05914   0.00574   0.00000   0.01386   0.01386   2.07300
    R9        2.64656   0.04070   0.00000   0.07765   0.07761   2.72417
   R10        2.05919   0.00619   0.00000   0.01497   0.01497   2.07416
   R11        2.68149   0.03820   0.00000   0.07820   0.07830   2.75979
   R12        2.65329   0.02506   0.00000   0.04876   0.04853   2.70182
   R13        2.67841   0.02192   0.00000   0.04381   0.04406   2.72247
   R14        2.63582   0.01343   0.00000   0.02479   0.02503   2.66085
   R15        2.05747   0.01084   0.00000   0.02613   0.02613   2.08360
   R16        2.62001   0.04952   0.00000   0.09019   0.09016   2.71017
   R17        2.63209   0.01481   0.00000   0.02787   0.02762   2.65970
   R18        2.05294   0.01465   0.00000   0.03506   0.03506   2.08800
   R19        2.05745   0.00976   0.00000   0.02353   0.02353   2.08098
   R20        2.19168   0.10865   0.00000   0.07918   0.07918   2.27086
    A1        2.08417  -0.00044   0.00000  -0.00185  -0.00192   2.08225
    A2        2.09624  -0.00113   0.00000  -0.00406  -0.00414   2.09210
    A3        2.10277   0.00157   0.00000   0.00591   0.00599   2.10876
    A4        2.09196   0.00054   0.00000   0.00006  -0.00003   2.09193
    A5        2.13050  -0.00370   0.00000  -0.01100  -0.01095   2.11955
    A6        2.06072   0.00316   0.00000   0.01094   0.01098   2.07171
    A7        2.09884   0.00148   0.00000   0.00200   0.00175   2.10059
    A8        2.10425  -0.00407   0.00000  -0.01613  -0.01603   2.08822
    A9        2.08009   0.00259   0.00000   0.01414   0.01424   2.09433
   A10        2.10998   0.00392   0.00000   0.01199   0.01178   2.12176
   A11        2.07149   0.00063   0.00000   0.00578   0.00587   2.07736
   A12        2.10171  -0.00455   0.00000  -0.01778  -0.01770   2.08402
   A13        2.09471  -0.00245   0.00000  -0.00680  -0.00645   2.08826
   A14        2.09022   0.01184   0.00000   0.03772   0.03807   2.12829
   A15        2.09826  -0.00938   0.00000  -0.03091  -0.03163   2.06663
   A16        2.06811  -0.00505   0.00000  -0.01317  -0.01329   2.05482
   A17        2.16679  -0.00003   0.00000  -0.00033  -0.00070   2.16609
   A18        2.04829   0.00508   0.00000   0.01348   0.01291   2.06120
   A19        2.12309   0.01293   0.00000   0.04327   0.04308   2.16616
   A20        2.12039  -0.01958   0.00000  -0.08127  -0.08145   2.03895
   A21        2.03970   0.00665   0.00000   0.03801   0.03772   2.07742
   A22        2.09635  -0.02455   0.00000  -0.08148  -0.08181   2.01454
   A23        2.09008   0.01905   0.00000   0.06679   0.06580   2.15588
   A24        2.09064  -0.00312   0.00000  -0.00426  -0.00379   2.08685
   A25        2.10246  -0.01593   0.00000  -0.06253  -0.06205   2.04041
   A26        2.11031  -0.00312   0.00000  -0.01112  -0.01235   2.09797
   A27        2.10406  -0.00740   0.00000  -0.03518  -0.03489   2.06917
   A28        2.06882   0.01052   0.00000   0.04633   0.04668   2.11549
   A29        3.15369  -0.00217   0.00000  -0.03046  -0.03046   3.12323
   A30        3.17309   0.00005   0.00000   0.00052   0.00052   3.17361
   A31        3.14163  -0.00202   0.00000  -0.02838  -0.02838   3.11325
   A32        3.14184   0.00225   0.00000   0.02142   0.02142   3.16326
    D1       -3.14156   0.00066   0.00000   0.00890   0.00926  -3.13229
    D2        0.00054   0.00059   0.00000   0.00784   0.00798   0.00852
    D3        0.00050   0.00163   0.00000   0.02164   0.02187   0.02237
    D4       -3.14059   0.00156   0.00000   0.02057   0.02058  -3.12000
    D5       -3.14156   0.00036   0.00000   0.00452   0.00425  -3.13731
    D6       -0.00026  -0.00349   0.00000  -0.04709  -0.04633  -0.04659
    D7       -0.00043  -0.00062   0.00000  -0.00831  -0.00843  -0.00886
    D8        3.14087  -0.00446   0.00000  -0.05992  -0.05900   3.08187
    D9        0.00012  -0.00133   0.00000  -0.01753  -0.01759  -0.01747
   D10       -3.14151  -0.00049   0.00000  -0.00657  -0.00681   3.13486
   D11        3.14122  -0.00127   0.00000  -0.01651  -0.01635   3.12488
   D12       -0.00041  -0.00043   0.00000  -0.00556  -0.00557  -0.00597
   D13       -0.00080   0.00002   0.00000   0.00006  -0.00015  -0.00095
   D14       -3.14098   0.00071   0.00000   0.00935   0.00934  -3.13164
   D15        3.14083  -0.00081   0.00000  -0.01075  -0.01096   3.12986
   D16        0.00065  -0.00012   0.00000  -0.00145  -0.00148  -0.00083
   D17        0.00087   0.00100   0.00000   0.01333   0.01358   0.01445
   D18       -3.14107   0.00116   0.00000   0.01552   0.01536  -3.12571
   D19        3.14102   0.00029   0.00000   0.00389   0.00408  -3.13808
   D20       -0.00091   0.00046   0.00000   0.00608   0.00586   0.00495
   D21       -0.00024  -0.00068   0.00000  -0.00904  -0.00904  -0.00928
   D22       -3.14156   0.00290   0.00000   0.03905   0.03843  -3.10313
   D23       -3.14149  -0.00085   0.00000  -0.01126  -0.01077   3.13092
   D24        0.00038   0.00273   0.00000   0.03684   0.03670   0.03707
   D25        3.14139   0.00214   0.00000   0.02716   0.02566  -3.11613
   D26        0.00076  -0.00078   0.00000  -0.01041  -0.01083  -0.01008
   D27       -0.00055   0.00231   0.00000   0.02936   0.02743   0.02688
   D28       -3.14118  -0.00061   0.00000  -0.00821  -0.00907   3.13294
   D29       -3.14146   0.00059   0.00000   0.00763   0.00767  -3.13380
   D30        0.00013  -0.00249   0.00000  -0.03281  -0.03162  -0.03149
   D31       -0.00017  -0.00322   0.00000  -0.04345  -0.04308  -0.04325
   D32        3.14142  -0.00630   0.00000  -0.08388  -0.08237   3.05906
   D33        0.00012  -0.00138   0.00000  -0.01673  -0.01555  -0.01543
   D34       -3.14147   0.00156   0.00000   0.02192   0.02455  -3.11692
   D35       -0.00027   0.00650   0.00000   0.08414   0.08495   0.08468
   D36       -3.14156   0.00587   0.00000   0.07519   0.07450  -3.06707
   D37        0.00049  -0.00700   0.00000  -0.09086  -0.09272  -0.09223
   D38        3.14114  -0.00415   0.00000  -0.05408  -0.05529   3.08585
   D39       -3.14140  -0.00636   0.00000  -0.08184  -0.08252   3.05926
   D40       -0.00076  -0.00351   0.00000  -0.04505  -0.04508  -0.04584
         Item               Value     Threshold  Converged?
 Maximum Force            0.110084     0.000450     NO 
 RMS     Force            0.020205     0.000300     NO 
 Maximum Displacement     0.176955     0.001800     NO 
 RMS     Displacement     0.056065     0.001200     NO 
 Predicted change in Energy=-3.063883D-02
 GradGradGradGradGradGradGradGradGradGradGradGradGradGradGradGradGradGrad

                          Input orientation:                          
 ---------------------------------------------------------------------
 Center     Atomic      Atomic             Coordinates (Angstroms)
 Number     Number       Type             X           Y           Z
 ---------------------------------------------------------------------
      1          7           0        0.984956   -0.065295   -0.100124
      2          6           0        2.186965   -0.076680   -0.120678
      3          6           0        3.641469   -0.064390   -0.105029
      4          6           0        4.332902    1.192572   -0.079711
      5          6           0        5.765425    1.218731   -0.075654
      6          6           0        6.491693    0.028961   -0.075163
      7          6           0        5.836536   -1.255129   -0.077507
      8          6           0        4.377802   -1.321867   -0.098812
      9          6           0        3.757249   -2.621180   -0.051681
     10          6           0        4.468886   -3.836081   -0.036588
     11          6           0        5.896774   -3.713988   -0.091734
     12          6           0        6.573303   -2.480261   -0.057752
     13          7           0        3.047769    3.518930   -0.066169
     14          6           0        3.610158    2.456992   -0.058738
     15          1           0        6.290508    2.181797   -0.062682
     16          1           0        7.588274    0.074448   -0.062476
     17          1           0        2.656766   -2.644926    0.012282
     18          1           0        6.519778   -4.624306   -0.155278
     19          1           0        7.673458   -2.432807   -0.050037
 ---------------------------------------------------------------------
                    Distance matrix (angstroms):
                    1          2          3          4          5
     1  N    0.000000
     2  C    1.202239   0.000000
     3  C    2.656517   1.454640   0.000000
     4  C    3.576505   2.493536   1.434808   0.000000
     5  C    4.949970   3.805981   2.481623   1.432767   0.000000
     6  C    5.507600   4.306264   2.851909   2.452425   1.393922
     7  C    4.995402   3.835358   2.497386   2.872657   2.474882
     8  C    3.618063   2.520066   1.457214   2.514912   2.894939
     9  C    3.771008   2.990824   2.559966   3.857054   4.333390
    10  C    5.134260   4.398559   3.861988   5.030676   5.218588
    11  C    6.118741   5.195530   4.290238   5.149774   4.934494
    12  C    6.087978   5.002111   3.799252   4.302276   3.786229
    13  N    4.135580   3.697617   3.632379   2.657761   3.560430
    14  C    3.640787   2.906684   2.522002   1.456557   2.485709
    15  H    5.761919   4.684351   3.473407   2.193417   1.096985
    16  H    6.604903   5.403736   3.949475   3.442084   2.152286
    17  H    3.076048   2.614244   2.764519   4.188589   4.959772
    18  H    7.170905   6.281350   5.392589   6.214837   5.892068
    19  H    7.095327   5.971425   4.676468   4.929864   4.120070
                    6          7          8          9         10
     6  C    0.000000
     7  C    1.441569   0.000000
     8  C    2.508750   1.460416   0.000000
     9  C    3.808016   2.488012   1.440668   0.000000
    10  C    4.362543   2.921208   2.516632   1.408062   0.000000
    11  C    3.789970   2.459639   2.833650   2.402791   1.434159
    12  C    2.510609   1.429742   2.482697   2.819585   2.503451
    13  N    4.903119   5.528923   5.020296   6.180981   7.491104
    14  C    3.768136   4.328620   3.856249   5.080307   6.351431
    15  H    2.162252   3.466809   3.991918   5.430112   6.287594
    16  H    1.097597   2.199223   3.501163   4.684365   5.002348
    17  H    4.675894   3.471389   2.173659   1.102596   2.169105
    18  H    4.654041   3.438636   3.936667   3.413915   2.200351
    19  H    2.730842   2.182191   3.478205   3.920737   3.498377
                   11         12         13         14         15
    11  C    0.000000
    12  C    1.407455   0.000000
    13  N    7.773840   6.958430   0.000000
    14  C    6.581087   5.758185   1.201686   0.000000
    15  H    5.908989   4.670629   3.507606   2.694443   0.000000
    16  H    4.149009   2.748949   5.699180   4.637018   2.474897
    17  H    3.413410   3.920623   6.176743   5.190719   6.042098
    18  H    1.104921   2.146929   8.852970   7.656369   6.810593
    19  H    2.190838   1.101205   7.537933   6.357721   4.817393
                   16         17         18         19
    16  H    0.000000
    17  H    5.632082   0.000000
    18  H    4.819603   4.343833   0.000000
    19  H    2.508732   5.021561   2.478855   0.000000
 Stoichiometry    C12H5N2(1-)
 Framework group  C1[X(C12H5N2)]
 Deg. of freedom    51
 Full point group                 C1      NOp   1
 Largest Abelian subgroup         C1      NOp   1
 Largest concise Abelian subgroup C1      NOp   1
                         Standard orientation:                         
 ---------------------------------------------------------------------
 Center     Atomic      Atomic             Coordinates (Angstroms)
 Number     Number       Type             X           Y           Z
 ---------------------------------------------------------------------
      1          7           0        1.901962    2.873107   -0.009670
      2          6           0        1.362127    1.799176   -0.034743
      3          6           0        0.732221    0.488035   -0.024558
      4          6           0        1.555857   -0.686603   -0.001646
      5          6           0        0.948108   -1.984086   -0.002968
      6          6           0       -0.439951   -2.111778   -0.005389
      7          6           0       -1.303965   -0.957828   -0.005469
      8          6           0       -0.721062    0.381122   -0.021302
      9          6           0       -1.614078    1.510555    0.027962
     10          6           0       -3.018275    1.407022    0.040194
     11          6           0       -3.537758    0.071623   -0.020299
     12          6           0       -2.728428   -1.079426    0.011330
     13          7           0        4.210444   -0.558105    0.017083
     14          6           0        3.009337   -0.595039    0.022238
     15          1           0        1.581240   -2.879851    0.008178
     16          1           0       -0.882337   -3.116238    0.003183
     17          1           0       -1.150593    2.508685    0.096056
     18          1           0       -4.629340   -0.086299   -0.086324
     19          1           0       -3.170614   -2.087945    0.014917
 ---------------------------------------------------------------------
 Rotational constants (GHZ):      1.3333128      0.5485690      0.3887157
 Standard basis: STO-3G (5D, 7F)
 There are    75 symmetry adapted cartesian basis functions of A   symmetry.
 There are    75 symmetry adapted basis functions of A   symmetry.
    75 basis functions,   225 primitive gaussians,    75 cartesian basis functions
    46 alpha electrons       46 beta electrons
       nuclear repulsion energy       703.5134225526 Hartrees.
 NAtoms=   19 NActive=   19 NUniq=   19 SFac= 1.00D+00 NAtFMM=   60 NAOKFM=F Big=F
 Integral buffers will be    131072 words long.
 Raffenetti 2 integral format.
 Two-electron integral symmetry is turned on.
 One-electron integrals computed using PRISM.
 NBasis=    75 RedAO= T EigKep=  1.75D-01  NBF=    75
 NBsUse=    75 1.00D-06 EigRej= -1.00D+00 NBFU=    75
 Initial guess from the checkpoint file:  "/tmp/bnp.472666.sequoia/Gau-29520.chk"
 B after Tr=     0.000000    0.000000    0.000000
         Rot=    1.000000    0.000055   -0.000001   -0.000384 Ang=   0.04 deg.
 ExpMin= 1.69D-01 ExpMax= 9.91D+01 ExpMxC= 9.91D+01 IAcc=1 IRadAn=         1 AccDes= 0.00D+00
 Harris functional with IExCor=  402 and IRadAn=       1 diagonalized for initial guess.
 HarFok:  IExCor=  402 AccDes= 0.00D+00 IRadAn=         1 IDoV= 1 UseB2=F ITyADJ=14
 ICtDFT=  3500011 ScaDFX=  1.000000  1.000000  1.000000  1.000000
 FoFCou: FMM=F IPFlag=           0 FMFlag=      100000 FMFlg1=           0
         NFxFlg=           0 DoJE=T BraDBF=F KetDBF=T FulRan=T
         wScrn=  0.000000 ICntrl=     500 IOpCl=  0 I1Cent=   200000004 NGrid=           0
         NMat0=    1 NMatS0=      1 NMatT0=    0 NMatD0=    1 NMtDS0=    0 NMtDT0=    0
 Petite list used in FoFCou.
 Keep R1 ints in memory in canonical form, NReq=4993994.
 Requested convergence on RMS density matrix=1.00D-08 within 128 cycles.
 Requested convergence on MAX density matrix=1.00D-06.
 Requested convergence on             energy=1.00D-06.
 No special actions if energy rises.
 Integral accuracy reduced to 1.0D-05 until final iterations.
 Initial convergence to 1.0D-05 achieved.  Increase integral accuracy.
 SCF Done:  E(RB3LYP) =  -562.501876308     A.U. after   18 cycles
            NFock= 18  Conv=0.55D-08     -V/T= 2.0143
 Calling FoFJK, ICntrl=      2127 FMM=F ISym2X=0 I1Cent= 0 IOpClX= 0 NMat=1 NMatS=1 NMatT=0.
 ***** Axes restored to original set *****
 -------------------------------------------------------------------
 Center     Atomic                   Forces (Hartrees/Bohr)
 Number     Number              X              Y              Z
 -------------------------------------------------------------------
      1        7           0.000901629   -0.000378190   -0.000627560
      2        6          -0.001871694    0.001141809   -0.000042750
      3        6           0.004691200    0.000936111   -0.001555578
      4        6          -0.003689349   -0.000617443    0.001412851
      5        6           0.006487693   -0.006926507   -0.000671967
      6        6          -0.007062754    0.005492202    0.000072414
      7        6           0.005770987    0.002816653   -0.000366717
      8        6          -0.005110106    0.001242850   -0.004789994
      9        6           0.008797047   -0.001846513   -0.001988653
     10        6          -0.012507114   -0.012312255    0.006882132
     11        6           0.005664550    0.016155454   -0.003744235
     12        6          -0.000326988   -0.010742775    0.004367363
     13        7           0.000179623   -0.000450156    0.000082965
     14        6          -0.000676264   -0.000614812    0.000761746
     15        1          -0.001661456    0.001062587   -0.000059076
     16        1           0.000778968   -0.001741895   -0.000303641
     17        1          -0.000683995    0.004665070    0.002673599
     18        1           0.000903126    0.000148986   -0.004382754
     19        1          -0.000585101    0.001968826    0.002279856
 -------------------------------------------------------------------
 Cartesian Forces:  Max     0.016155454 RMS     0.004701529

 GradGradGradGradGradGradGradGradGradGradGradGradGradGradGradGradGradGrad
 Berny optimization.
 Using GEDIIS/GDIIS optimizer.
 FormGI is forming the generalized inverse of G from B-inverse, IUseBI=4.
 Internal  Forces:  Max     0.011296699 RMS     0.002602132
 Search for a local minimum.
 Step number   2 out of a maximum of  102
 All quantities printed in internal units (Hartrees-Bohrs-Radians)
 Mixed Optimization -- RFO/linear search
 Update second derivatives using D2CorX and points    1    2
 DE= -2.80D-02 DEPred=-3.06D-02 R= 9.14D-01
 TightC=F SS=  1.41D+00  RLast= 3.82D-01 DXNew= 5.0454D-01 1.1460D+00
 Trust test= 9.14D-01 RLast= 3.82D-01 DXMaxT set to 5.05D-01
 ITU=  1  0
 Use linear search instead of GDIIS.
     Eigenvalues ---    0.01576   0.01582   0.01847   0.01858   0.01894
     Eigenvalues ---    0.01945   0.01988   0.02019   0.02056   0.02068
     Eigenvalues ---    0.02110   0.02126   0.02132   0.02156   0.02202
     Eigenvalues ---    0.02259   0.04869   0.04875   0.15729   0.15992
     Eigenvalues ---    0.15998   0.15999   0.16052   0.21841   0.22457
     Eigenvalues ---    0.22729   0.24356   0.24553   0.24975   0.24991
     Eigenvalues ---    0.25001   0.34847   0.34858   0.34950   0.35009
     Eigenvalues ---    0.35282   0.38626   0.39753   0.40086   0.40272
     Eigenvalues ---    0.40784   0.42992   0.43764   0.44940   0.45369
     Eigenvalues ---    0.45623   0.46108   0.46830   0.49722   1.27930
     Eigenvalues ---    1.31973
 RFO step:  Lambda=-5.92201098D-03 EMin= 1.57553305D-02
 Quartic linear search produced a step of  0.13508.
 Iteration  1 RMS(Cart)=  0.06779534 RMS(Int)=  0.00288636
 Iteration  2 RMS(Cart)=  0.00365591 RMS(Int)=  0.00087071
 Iteration  3 RMS(Cart)=  0.00000791 RMS(Int)=  0.00087069
 Iteration  4 RMS(Cart)=  0.00000001 RMS(Int)=  0.00087069
 Variable       Old X    -DE/DX   Delta X   Delta X   Delta X     New X
                                 (Linear)    (Quad)   (Total)
    R1        2.27190  -0.00091   0.01084  -0.01100  -0.00017   2.27173
    R2        2.74887   0.00097   0.00404  -0.00116   0.00288   2.75175
    R3        2.71139  -0.00415   0.00718  -0.01703  -0.00975   2.70164
    R4        2.75374  -0.00204   0.00815  -0.01307  -0.00486   2.74888
    R5        2.70754   0.00162   0.00893  -0.00459   0.00438   2.71192
    R6        2.75249  -0.00066   0.00517  -0.00679  -0.00162   2.75087
    R7        2.63413  -0.00522   0.00033  -0.01280  -0.01253   2.62160
    R8        2.07300   0.00014   0.00187  -0.00137   0.00050   2.07351
    R9        2.72417  -0.00179   0.01048  -0.01456  -0.00418   2.71999
   R10        2.07416   0.00070   0.00202   0.00028   0.00230   2.07646
   R11        2.75979   0.00002   0.01058  -0.01010   0.00073   2.76052
   R12        2.70182  -0.00043   0.00656  -0.00776  -0.00146   2.70036
   R13        2.72247  -0.00085   0.00595  -0.00743  -0.00101   2.72146
   R14        2.66085   0.00113   0.00338  -0.00011   0.00354   2.66439
   R15        2.08360   0.00073   0.00353  -0.00107   0.00246   2.08606
   R16        2.71017   0.00928   0.01218   0.00982   0.02176   2.73193
   R17        2.65970  -0.00577   0.00373  -0.01765  -0.01447   2.64523
   R18        2.08800   0.00064   0.00474  -0.00255   0.00219   2.09019
   R19        2.08098  -0.00048   0.00318  -0.00458  -0.00140   2.07958
   R20        2.27086  -0.00048   0.01070  -0.01049   0.00020   2.27106
    A1        2.08225  -0.00104  -0.00026  -0.00444  -0.00475   2.07750
    A2        2.09210   0.00017  -0.00056   0.00118   0.00055   2.09265
    A3        2.10876   0.00086   0.00081   0.00308   0.00388   2.11264
    A4        2.09193  -0.00072   0.00000  -0.00319  -0.00323   2.08870
    A5        2.11955  -0.00103  -0.00148  -0.00306  -0.00452   2.11503
    A6        2.07171   0.00175   0.00148   0.00625   0.00775   2.07946
    A7        2.10059   0.00010   0.00024  -0.00043  -0.00038   2.10021
    A8        2.08822  -0.00209  -0.00217  -0.01161  -0.01370   2.07452
    A9        2.09433   0.00199   0.00192   0.01197   0.01397   2.10830
   A10        2.12176   0.00088   0.00159   0.00168   0.00294   2.12470
   A11        2.07736   0.00139   0.00079   0.00996   0.01090   2.08826
   A12        2.08402  -0.00227  -0.00239  -0.01171  -0.01395   2.07007
   A13        2.08826  -0.00071  -0.00087  -0.00144  -0.00176   2.08651
   A14        2.12829   0.00318   0.00514   0.01109   0.01720   2.14549
   A15        2.06663  -0.00246  -0.00427  -0.00964  -0.01545   2.05118
   A16        2.05482  -0.00042  -0.00179  -0.00038  -0.00281   2.05201
   A17        2.16609  -0.00079  -0.00009  -0.00321  -0.00374   2.16235
   A18        2.06120   0.00114   0.00174   0.00064   0.00093   2.06213
   A19        2.16616   0.00547   0.00582   0.01988   0.02445   2.19062
   A20        2.03895  -0.00759  -0.01100  -0.03539  -0.04618   1.99277
   A21        2.07742   0.00208   0.00510   0.01410   0.01920   2.09662
   A22        2.01454  -0.01130  -0.01105  -0.04173  -0.05509   1.95945
   A23        2.15588   0.00703   0.00889   0.02237   0.02806   2.18394
   A24        2.08685  -0.00262  -0.00051  -0.00913  -0.00829   2.07856
   A25        2.04041  -0.00442  -0.00838  -0.01349  -0.02047   2.01995
   A26        2.09797  -0.00021  -0.00167  -0.00446  -0.00915   2.08881
   A27        2.06917  -0.00206  -0.00471  -0.00760  -0.01159   2.05757
   A28        2.11549   0.00223   0.00631   0.01050   0.01773   2.13323
   A29        3.12323   0.00088  -0.00411   0.05134   0.04723   3.17046
   A30        3.17361  -0.00013   0.00007  -0.00275  -0.00268   3.17092
   A31        3.11325   0.00134  -0.00383   0.07484   0.07101   3.18426
   A32        3.16326  -0.00018   0.00289  -0.00683  -0.00394   3.15932
    D1       -3.13229   0.00047   0.00125   0.01865   0.02029  -3.11200
    D2        0.00852   0.00047   0.00108   0.01858   0.01983   0.02835
    D3        0.02237   0.00087   0.00295   0.03428   0.03745   0.05982
    D4       -3.12000   0.00088   0.00278   0.03421   0.03699  -3.08301
    D5       -3.13731  -0.00011   0.00057  -0.00604  -0.00567   3.14020
    D6       -0.04659  -0.00176  -0.00626  -0.07592  -0.08143  -0.12801
    D7       -0.00886  -0.00053  -0.00114  -0.02180  -0.02302  -0.03188
    D8        3.08187  -0.00218  -0.00797  -0.09168  -0.09878   2.98309
    D9       -0.01747  -0.00053  -0.00238  -0.01979  -0.02222  -0.03969
   D10        3.13486  -0.00033  -0.00092  -0.01283  -0.01396   3.12091
   D11        3.12488  -0.00053  -0.00221  -0.01972  -0.02177   3.10311
   D12       -0.00597  -0.00034  -0.00075  -0.01276  -0.01350  -0.01947
   D13       -0.00095  -0.00017  -0.00002  -0.00689  -0.00711  -0.00806
   D14       -3.13164   0.00005   0.00126   0.00049   0.00176  -3.12988
   D15        3.12986  -0.00039  -0.00148  -0.01403  -0.01571   3.11415
   D16       -0.00083  -0.00018  -0.00020  -0.00664  -0.00684  -0.00767
   D17        0.01445   0.00051   0.00183   0.01906   0.02124   0.03568
   D18       -3.12571   0.00031   0.00208   0.01249   0.01437  -3.11134
   D19       -3.13808   0.00032   0.00055   0.01178   0.01260  -3.12548
   D20        0.00495   0.00012   0.00079   0.00521   0.00574   0.01068
   D21       -0.00928  -0.00016  -0.00122  -0.00455  -0.00599  -0.01527
   D22       -3.10313   0.00144   0.00519   0.06116   0.06544  -3.03769
   D23        3.13092   0.00004  -0.00145   0.00181   0.00054   3.13146
   D24        0.03707   0.00164   0.00496   0.06751   0.07197   0.10904
   D25       -3.11613   0.00116   0.00347   0.04484   0.04655  -3.06959
   D26       -0.01008  -0.00019  -0.00146  -0.00440  -0.00666  -0.01674
   D27        0.02688   0.00096   0.00370   0.03834   0.03980   0.06668
   D28        3.13294  -0.00039  -0.00123  -0.01090  -0.01341   3.11953
   D29       -3.13380  -0.00013   0.00104  -0.00957  -0.00877   3.14062
   D30       -0.03149  -0.00123  -0.00427  -0.05202  -0.05549  -0.08698
   D31       -0.04325  -0.00183  -0.00582  -0.07971  -0.08503  -0.12828
   D32        3.05906  -0.00293  -0.01113  -0.12216  -0.13175   2.92730
   D33       -0.01543  -0.00047  -0.00210  -0.01636  -0.01710  -0.03253
   D34       -3.11692   0.00085   0.00332   0.02800   0.03354  -3.08339
   D35        0.08468   0.00366   0.01147   0.13273   0.14456   0.22923
   D36       -3.06707   0.00280   0.01006   0.10244   0.11147  -2.95559
   D37       -0.09223  -0.00419  -0.01253  -0.14729  -0.16158  -0.25381
   D38        3.08585  -0.00272  -0.00747  -0.09634  -0.10534   2.98051
   D39        3.05926  -0.00336  -0.01115  -0.11777  -0.12954   2.92972
   D40       -0.04584  -0.00189  -0.00609  -0.06682  -0.07330  -0.11914
         Item               Value     Threshold  Converged?
 Maximum Force            0.011297     0.000450     NO 
 RMS     Force            0.002602     0.000300     NO 
 Maximum Displacement     0.348155     0.001800     NO 
 RMS     Displacement     0.068139     0.001200     NO 
 Predicted change in Energy=-3.300311D-03
 GradGradGradGradGradGradGradGradGradGradGradGradGradGradGradGradGradGrad

                          Input orientation:                          
 ---------------------------------------------------------------------
 Center     Atomic      Atomic             Coordinates (Angstroms)
 Number     Number       Type             X           Y           Z
 ---------------------------------------------------------------------
      1          7           0        1.001062   -0.120111   -0.265579
      2          6           0        2.199443   -0.078061   -0.180266
      3          6           0        3.654964   -0.066971   -0.138441
      4          6           0        4.337942    1.187788   -0.083541
      5          6           0        5.772740    1.216082   -0.078740
      6          6           0        6.496835    0.032757   -0.079522
      7          6           0        5.847859   -1.251985   -0.075233
      8          6           0        4.389305   -1.322438   -0.115243
      9          6           0        3.767440   -2.614150    0.021704
     10          6           0        4.444587   -3.850570    0.047210
     11          6           0        5.871744   -3.697231   -0.125100
     12          6           0        6.567851   -2.485801   -0.039642
     13          7           0        3.029393    3.499211   -0.010976
     14          6           0        3.603927    2.443891   -0.033681
     15          1           0        6.283254    2.187076   -0.056193
     16          1           0        7.595000    0.067487   -0.064628
     17          1           0        2.678167   -2.575270    0.196518
     18          1           0        6.491822   -4.596042   -0.301316
     19          1           0        7.667333   -2.440142   -0.030861
 ---------------------------------------------------------------------
                    Distance matrix (angstroms):
                    1          2          3          4          5
     1  N    0.000000
     2  C    1.202149   0.000000
     3  C    2.657477   1.456165   0.000000
     4  C    3.588664   2.486948   1.429648   0.000000
     5  C    4.958754   3.801785   2.476846   1.435085   0.000000
     6  C    5.501047   4.300002   2.844231   2.448455   1.387290
     7  C    4.980844   3.834067   2.493399   2.869217   2.469212
     8  C    3.598386   2.519563   1.454644   2.510951   2.891247
     9  C    3.735720   2.988503   2.554685   3.845943   4.324580
    10  C    5.086455   4.395934   3.869572   5.041182   5.239352
    11  C    6.044755   5.156281   4.253596   5.120321   4.914529
    12  C    6.052824   4.989988   3.787533   4.297636   3.786512
    13  N    4.156735   3.676187   3.622878   2.657112   3.569765
    14  C    3.660983   2.890382   2.513566   1.455699   2.492649
    15  H    5.767887   4.671591   3.463438   2.187136   1.097253
    16  H    6.599666   5.398759   3.943020   3.444395   2.154089
    17  H    3.008990   2.570446   2.712543   4.122365   4.901683
    18  H    7.084044   6.233083   5.346660   6.175704   5.860666
    19  H    7.062351   5.958152   4.662898   4.924377   4.118221
                    6          7          8          9         10
     6  C    0.000000
     7  C    1.439358   0.000000
     8  C    2.505895   1.460802   0.000000
     9  C    3.803414   2.488580   1.440136   0.000000
    10  C    4.394088   2.955809   2.533949   1.409934   0.000000
    11  C    3.782278   2.445872   2.799529   2.371226   1.445676
    12  C    2.519875   1.428971   2.470869   2.804022   2.525546
    13  N    4.903484   5.524648   5.010841   6.157837   7.485014
    14  C    3.766243   4.323940   3.848208   5.060986   6.350866
    15  H    2.165006   3.466565   3.988386   5.420993   6.312255
    16  H    1.098815   2.189434   3.494414   4.674275   5.028795
    17  H    4.632519   3.445559   2.143543   1.103896   2.183786
    18  H    4.634113   3.412993   3.895085   3.384450   2.206438
    19  H    2.736359   2.173516   3.464368   3.904127   3.518734
                   11         12         13         14         15
    11  C    0.000000
    12  C    1.399797   0.000000
    13  N    7.738266   6.952833   0.000000
    14  C    6.547117   5.752108   1.201792   0.000000
    15  H    5.899082   4.681565   3.508754   2.691701   0.000000
    16  H    4.140818   2.752261   5.711775   4.645096   2.492671
    17  H    3.400171   3.897873   6.088163   5.109012   5.978332
    18  H    1.106079   2.127762   8.809418   7.613950   6.790750
    19  H    2.193922   1.100465   7.535702   6.353350   4.829851
                   16         17         18         19
    16  H    0.000000
    17  H    5.588167   0.000000
    18  H    4.798076   4.344574   0.000000
    19  H    2.508899   4.996172   2.470401   0.000000
 Stoichiometry    C12H5N2(1-)
 Framework group  C1[X(C12H5N2)]
 Deg. of freedom    51
 Full point group                 C1      NOp   1
 Largest Abelian subgroup         C1      NOp   1
 Largest concise Abelian subgroup C1      NOp   1
                         Standard orientation:                         
 ---------------------------------------------------------------------
 Center     Atomic      Atomic             Coordinates (Angstroms)
 Number     Number       Type             X           Y           Z
 ---------------------------------------------------------------------
      1          7           0        1.844591    2.888138   -0.124857
      2          6           0        1.356637    1.791362   -0.060473
      3          6           0        0.728425    0.477782   -0.043996
      4          6           0        1.556553   -0.686872   -0.003014
      5          6           0        0.953116   -1.988764   -0.023221
      6          6           0       -0.427828   -2.120803   -0.034688
      7          6           0       -1.298173   -0.974531   -0.017032
      8          6           0       -0.722000    0.367764   -0.031547
      9          6           0       -1.611310    1.490559    0.118286
     10          6           0       -3.019564    1.423554    0.134007
     11          6           0       -3.506167    0.076614   -0.063353
     12          6           0       -2.722926   -1.081346    0.008023
     13          7           0        4.207163   -0.525240    0.088569
     14          6           0        3.006957   -0.578620    0.057578
     15          1           0        1.601978   -2.873521   -0.011128
     16          1           0       -0.878005   -3.123158   -0.038957
     17          1           0       -1.100040    2.449558    0.311961
     18          1           0       -4.584713   -0.083787   -0.248877
     19          1           0       -3.163819   -2.089576   -0.002399
 ---------------------------------------------------------------------
 Rotational constants (GHZ):      1.3278237      0.5524894      0.3907937
 Standard basis: STO-3G (5D, 7F)
 There are    75 symmetry adapted cartesian basis functions of A   symmetry.
 There are    75 symmetry adapted basis functions of A   symmetry.
    75 basis functions,   225 primitive gaussians,    75 cartesian basis functions
    46 alpha electrons       46 beta electrons
       nuclear repulsion energy       704.4642829947 Hartrees.
 NAtoms=   19 NActive=   19 NUniq=   19 SFac= 1.00D+00 NAtFMM=   60 NAOKFM=F Big=F
 Integral buffers will be    131072 words long.
 Raffenetti 2 integral format.
 Two-electron integral symmetry is turned on.
 One-electron integrals computed using PRISM.
 NBasis=    75 RedAO= T EigKep=  1.75D-01  NBF=    75
 NBsUse=    75 1.00D-06 EigRej= -1.00D+00 NBFU=    75
 Initial guess from the checkpoint file:  "/tmp/bnp.472666.sequoia/Gau-29520.chk"
 B after Tr=     0.000000    0.000000    0.000000
         Rot=    0.999998    0.000021   -0.000044   -0.002104 Ang=   0.24 deg.
 ExpMin= 1.69D-01 ExpMax= 9.91D+01 ExpMxC= 9.91D+01 IAcc=1 IRadAn=         1 AccDes= 0.00D+00
 Harris functional with IExCor=  402 and IRadAn=       1 diagonalized for initial guess.
 HarFok:  IExCor=  402 AccDes= 0.00D+00 IRadAn=         1 IDoV= 1 UseB2=F ITyADJ=14
 ICtDFT=  3500011 ScaDFX=  1.000000  1.000000  1.000000  1.000000
 FoFCou: FMM=F IPFlag=           0 FMFlag=      100000 FMFlg1=           0
         NFxFlg=           0 DoJE=T BraDBF=F KetDBF=T FulRan=T
         wScrn=  0.000000 ICntrl=     500 IOpCl=  0 I1Cent=   200000004 NGrid=           0
         NMat0=    1 NMatS0=      1 NMatT0=    0 NMatD0=    1 NMtDS0=    0 NMtDT0=    0
 Petite list used in FoFCou.
 Keep R1 ints in memory in canonical form, NReq=4993994.
 Requested convergence on RMS density matrix=1.00D-08 within 128 cycles.
 Requested convergence on MAX density matrix=1.00D-06.
 Requested convergence on             energy=1.00D-06.
 No special actions if energy rises.
 Integral accuracy reduced to 1.0D-05 until final iterations.
 Initial convergence to 1.0D-05 achieved.  Increase integral accuracy.
 SCF Done:  E(RB3LYP) =  -562.504810132     A.U. after   17 cycles
            NFock= 17  Conv=0.47D-08     -V/T= 2.0142
 Calling FoFJK, ICntrl=      2127 FMM=F ISym2X=0 I1Cent= 0 IOpClX= 0 NMat=1 NMatS=1 NMatT=0.
 ***** Axes restored to original set *****
 -------------------------------------------------------------------
 Center     Atomic                   Forces (Hartrees/Bohr)
 Number     Number              X              Y              Z
 -------------------------------------------------------------------
      1        7           0.001480245    0.001536994    0.001960086
      2        6          -0.002882056   -0.003005875   -0.004416361
      3        6           0.002512890   -0.000926878    0.001551535
      4        6           0.000216860    0.001083499   -0.000096013
      5        6           0.000010111    0.000689881    0.000079217
      6        6          -0.000268738   -0.000916680    0.000335654
      7        6           0.001747577    0.001374987    0.000043039
      8        6          -0.002028522    0.003449019    0.000778220
      9        6          -0.003194804   -0.002204033    0.001739727
     10        6          -0.000171239    0.002703452    0.000320355
     11        6           0.003025071   -0.002099483   -0.001368794
     12        6           0.000892292    0.000173799   -0.001312359
     13        7           0.000445855   -0.000941629    0.000179024
     14        6          -0.000393923    0.000656937   -0.000166493
     15        1          -0.000249358    0.000105714   -0.000207589
     16        1          -0.000141695   -0.000208321   -0.000075267
     17        1          -0.000049053   -0.000277044   -0.000205668
     18        1          -0.000477913   -0.000748350   -0.000265361
     19        1          -0.000473600   -0.000445989    0.001127048
 -------------------------------------------------------------------
 Cartesian Forces:  Max     0.004416361 RMS     0.001494005

 GradGradGradGradGradGradGradGradGradGradGradGradGradGradGradGradGradGrad
 Berny optimization.
 Using GEDIIS/GDIIS optimizer.
 FormGI is forming the generalized inverse of G from B-inverse, IUseBI=4.
 Internal  Forces:  Max     0.003948718 RMS     0.000960182
 Search for a local minimum.
 Step number   3 out of a maximum of  102
 All quantities printed in internal units (Hartrees-Bohrs-Radians)
 Mixed Optimization -- En-DIIS/RFO-DIIS
 Update second derivatives using D2CorX and points    2    3
 DE= -2.93D-03 DEPred=-3.30D-03 R= 8.89D-01
 TightC=F SS=  1.41D+00  RLast= 4.20D-01 DXNew= 8.4853D-01 1.2588D+00
 Trust test= 8.89D-01 RLast= 4.20D-01 DXMaxT set to 8.49D-01
 ITU=  1  1  0
 Use linear search instead of GDIIS.
     Eigenvalues ---    0.01315   0.01576   0.01855   0.01876   0.01920
     Eigenvalues ---    0.01962   0.02011   0.02033   0.02058   0.02097
     Eigenvalues ---    0.02113   0.02126   0.02133   0.02157   0.02229
     Eigenvalues ---    0.02892   0.04869   0.04876   0.15534   0.15943
     Eigenvalues ---    0.15989   0.15997   0.16137   0.22090   0.22573
     Eigenvalues ---    0.23363   0.24340   0.24514   0.24853   0.24984
     Eigenvalues ---    0.25027   0.34846   0.34857   0.34942   0.35015
     Eigenvalues ---    0.35270   0.38587   0.39712   0.40119   0.40303
     Eigenvalues ---    0.40671   0.43102   0.43928   0.44534   0.45044
     Eigenvalues ---    0.45625   0.46119   0.46666   0.50337   1.27930
     Eigenvalues ---    1.31943
 RFO step:  Lambda=-1.71052173D-03 EMin= 1.31496144D-02
 Quartic linear search produced a step of -0.06049.
 Iteration  1 RMS(Cart)=  0.04837136 RMS(Int)=  0.00542225
 Iteration  2 RMS(Cart)=  0.00601315 RMS(Int)=  0.00008343
 Iteration  3 RMS(Cart)=  0.00004964 RMS(Int)=  0.00007822
 Iteration  4 RMS(Cart)=  0.00000001 RMS(Int)=  0.00007822
 Variable       Old X    -DE/DX   Delta X   Delta X   Delta X     New X
                                 (Linear)    (Quad)   (Total)
    R1        2.27173  -0.00167   0.00001  -0.00332  -0.00331   2.26842
    R2        2.75175   0.00149  -0.00017   0.00370   0.00353   2.75528
    R3        2.70164   0.00070   0.00059  -0.00346  -0.00285   2.69879
    R4        2.74888  -0.00217   0.00029  -0.00826  -0.00800   2.74087
    R5        2.71192  -0.00002  -0.00026  -0.00011  -0.00032   2.71160
    R6        2.75087  -0.00027   0.00010  -0.00220  -0.00210   2.74877
    R7        2.62160   0.00091   0.00076  -0.00256  -0.00176   2.61984
    R8        2.07351  -0.00003  -0.00003  -0.00025  -0.00028   2.07322
    R9        2.71999  -0.00046   0.00025  -0.00435  -0.00411   2.71588
   R10        2.07646  -0.00015  -0.00014   0.00003  -0.00011   2.07635
   R11        2.76052   0.00235  -0.00004   0.00323   0.00311   2.76363
   R12        2.70036   0.00201   0.00009   0.00236   0.00242   2.70279
   R13        2.72146   0.00198   0.00006   0.00276   0.00283   2.72430
   R14        2.66439  -0.00033  -0.00021  -0.00004  -0.00024   2.66415
   R15        2.08606   0.00000  -0.00015   0.00020   0.00005   2.08611
   R16        2.73193   0.00163  -0.00132   0.00852   0.00721   2.73915
   R17        2.64523   0.00077   0.00088  -0.00435  -0.00347   2.64176
   R18        2.09019   0.00038  -0.00013   0.00087   0.00073   2.09092
   R19        2.07958  -0.00048   0.00008  -0.00237  -0.00229   2.07729
   R20        2.27106  -0.00104  -0.00001  -0.00271  -0.00272   2.26833
    A1        2.07750   0.00016   0.00029  -0.00059  -0.00028   2.07723
    A2        2.09265  -0.00059  -0.00003  -0.00142  -0.00142   2.09123
    A3        2.11264   0.00044  -0.00023   0.00233   0.00197   2.11460
    A4        2.08870  -0.00011   0.00020  -0.00175  -0.00156   2.08714
    A5        2.11503  -0.00015   0.00027  -0.00177  -0.00150   2.11353
    A6        2.07946   0.00026  -0.00047   0.00352   0.00306   2.08251
    A7        2.10021  -0.00019   0.00002  -0.00069  -0.00066   2.09955
    A8        2.07452  -0.00019   0.00083  -0.00571  -0.00490   2.06961
    A9        2.10830   0.00038  -0.00085   0.00655   0.00568   2.11398
   A10        2.12470   0.00027  -0.00018   0.00209   0.00185   2.12655
   A11        2.08826   0.00008  -0.00066   0.00433   0.00368   2.09194
   A12        2.07007  -0.00035   0.00084  -0.00627  -0.00541   2.06465
   A13        2.08651  -0.00062   0.00011  -0.00257  -0.00249   2.08401
   A14        2.14549   0.00010  -0.00104   0.00609   0.00524   2.15073
   A15        2.05118   0.00052   0.00093  -0.00357  -0.00283   2.04834
   A16        2.05201   0.00021   0.00017   0.00019   0.00035   2.05237
   A17        2.16235   0.00000   0.00023  -0.00016   0.00031   2.16266
   A18        2.06213  -0.00017  -0.00006  -0.00085  -0.00101   2.06112
   A19        2.19062  -0.00169  -0.00148  -0.00031  -0.00197   2.18865
   A20        1.99277   0.00112   0.00279  -0.00808  -0.00519   1.98757
   A21        2.09662   0.00060  -0.00116   0.00893   0.00786   2.10449
   A22        1.95945   0.00296   0.00333  -0.00792  -0.00486   1.95460
   A23        2.18394  -0.00177  -0.00170  -0.00067  -0.00258   2.18136
   A24        2.07856   0.00003   0.00050  -0.00357  -0.00305   2.07551
   A25        2.01995   0.00172   0.00124   0.00338   0.00463   2.02457
   A26        2.08881   0.00001   0.00055  -0.00396  -0.00361   2.08520
   A27        2.05757   0.00042   0.00070   0.00007   0.00092   2.05849
   A28        2.13323  -0.00041  -0.00107   0.00363   0.00269   2.13591
   A29        3.17046  -0.00348  -0.00286  -0.16677  -0.16963   3.00084
   A30        3.17092  -0.00011   0.00016  -0.00297  -0.00281   3.16811
   A31        3.18426  -0.00395  -0.00430  -0.18351  -0.18781   2.99645
   A32        3.15932  -0.00045   0.00024  -0.01026  -0.01002   3.14930
    D1       -3.11200   0.00041  -0.00123   0.02753   0.02626  -3.08574
    D2        0.02835   0.00045  -0.00120   0.02746   0.02625   0.05461
    D3        0.05982   0.00004  -0.00227   0.01553   0.01325   0.07307
    D4       -3.08301   0.00007  -0.00224   0.01546   0.01325  -3.06977
    D5        3.14020  -0.00079   0.00034  -0.03864  -0.03829   3.10192
    D6       -0.12801  -0.00049   0.00493  -0.04645  -0.04158  -0.16960
    D7       -0.03188  -0.00041   0.00139  -0.02652  -0.02515  -0.05703
    D8        2.98309  -0.00010   0.00597  -0.03434  -0.02845   2.95464
[...]
 ! D18   D(5,6,7,12)           179.8589         -DE/DX =    0.0                 !
 ! D19   D(16,6,7,8)          -179.5802         -DE/DX =    0.0                 !
 ! D20   D(16,6,7,12)           -0.6537         -DE/DX =    0.0                 !
 ! D21   D(6,7,8,3)              0.9768         -DE/DX =    0.0                 !
 ! D22   D(6,7,8,9)           -172.6601         -DE/DX =    0.0                 !
 ! D23   D(12,7,8,3)          -178.0037         -DE/DX =    0.0                 !
 ! D24   D(12,7,8,9)             8.3594         -DE/DX =    0.0                 !
 ! D25   D(6,7,12,11)         -174.1769         -DE/DX =    0.0                 !
 ! D26   D(6,7,12,19)            1.1358         -DE/DX =    0.0                 !
 ! D27   D(8,7,12,11)            4.7623         -DE/DX =    0.0                 !
 ! D28   D(8,7,12,19)         -179.9251         -DE/DX =    0.0                 !
 ! D29   D(3,8,9,10)           176.2107         -DE/DX =    0.0                 !
 ! D30   D(3,8,9,17)            -8.1132         -DE/DX =    0.0                 !
 ! D31   D(7,8,9,10)           -10.5925         -DE/DX =    0.0                 !
 ! D32   D(7,8,9,17)           165.0836         -DE/DX =    0.0                 !
 ! D33   D(8,9,10,11)           -0.7613         -DE/DX =    0.0                 !
 ! D34   D(17,9,10,11)        -176.1971         -DE/DX =    0.0                 !
 ! D35   D(9,10,11,12)          15.2605         -DE/DX =    0.0                 !
 ! D36   D(9,10,11,18)        -167.6484         -DE/DX =    0.0                 !
 ! D37   D(10,11,12,7)         -17.5968         -DE/DX =    0.0                 !
 ! D38   D(10,11,12,19)        167.2976         -DE/DX =    0.0                 !
 ! D39   D(18,11,12,7)         165.2436         -DE/DX =    0.0                 !
 ! D40   D(18,11,12,19)         -9.862          -DE/DX =    0.0                 !
 --------------------------------------------------------------------------------
 GradGradGradGradGradGradGradGradGradGradGradGradGradGradGradGradGradGrad

                          Input orientation:                          
 ---------------------------------------------------------------------
 Center     Atomic      Atomic             Coordinates (Angstroms)
 Number     Number       Type             X           Y           Z
 ---------------------------------------------------------------------
      1          7           0        1.001106   -0.089979   -0.292662
      2          6           0        2.200301   -0.086030   -0.223204
      3          6           0        3.656590   -0.071041   -0.139859
      4          6           0        4.336329    1.188863   -0.090537
      5          6           0        5.770196    1.214970   -0.063686
      6          6           0        6.495101    0.030855   -0.052804
      7          6           0        5.849778   -1.255635   -0.053628
      8          6           0        4.386181   -1.319980   -0.087126
      9          6           0        3.766120   -2.615833    0.076317
     10          6           0        4.459727   -3.835804    0.052272
     11          6           0        5.876334   -3.699531   -0.170834
     12          6           0        6.573907   -2.488717   -0.045525
     13          7           0        3.021518    3.495582   -0.051875
     14          6           0        3.599761    2.442450   -0.062996
     15          1           0        6.280258    2.186357   -0.044025
     16          1           0        7.592939    0.066367   -0.034613
     17          1           0        2.686322   -2.586811    0.301380
     18          1           0        6.475780   -4.597228   -0.410991
     19          1           0        7.672422   -2.443334   -0.019133
 ---------------------------------------------------------------------
                    Distance matrix (angstroms):
                    1          2          3          4          5
     1  N    0.000000
     2  C    1.201211   0.000000
     3  C    2.659944   1.458749   0.000000
     4  C    3.577708   2.491098   1.432423   0.000000
     5  C    4.949700   3.802920   2.475269   1.434356   0.000000
     6  C    5.500556   4.299769   2.841673   2.450042   1.388429
     7  C    4.992545   3.836068   2.494148   2.875319   2.471907
     8  C    3.607475   2.513806   1.447388   2.509341   2.888255
     9  C    3.763162   2.990219   2.556305   3.850804   4.325618
    10  C    5.110013   4.386536   3.854268   5.028210   5.219299
    11  C    6.067252   5.154935   4.253723   5.125862   4.916815
    12  C    6.072160   4.993286   3.790092   4.305041   3.789931
    13  N    4.122655   3.678545   3.623790   2.655404   3.571632
    14  C    3.635787   2.894368   2.515308   1.454225   2.493491
    15  H    5.754387   4.673532   3.462465   2.185411   1.097334
    16  H    6.598734   5.398087   3.940153   3.445089   2.154653
    17  H    3.070343   2.601021   2.732254   4.139062   4.908879
    18  H    7.092344   6.218191   5.339262   6.177281   5.865161
    19  H    7.079516   5.961765   4.665754   4.932289   4.123547
                    6          7          8          9         10
     6  C    0.000000
     7  C    1.439270   0.000000
     8  C    2.504692   1.465394   0.000000
     9  C    3.803810   2.491717   1.445830   0.000000
    10  C    4.370908   2.932700   2.520755   1.403566   0.000000
    11  C    3.783197   2.446849   2.808883   2.385055   1.440528
    12  C    2.520815   1.430007   2.480690   2.813302   2.508777
    13  N    4.906130   5.529296   5.005315   6.157943   7.471847
    14  C    3.768142   4.328799   3.843816   5.062935   6.337925
    15  H    2.166200   3.468820   3.985447   5.421845   6.292060
    16  H    1.098563   2.187844   3.493997   4.674510   5.005147
    17  H    4.635129   3.450437   2.155300   1.103386   2.183347
    18  H    4.641964   3.418455   3.900214   3.391998   2.204279
    19  H    2.740225   2.175741   3.473605   3.911273   3.502210
                   11         12         13         14         15
    11  C    0.000000
    12  C    1.402989   0.000000
    13  N    7.741690   6.959263   0.000000
    14  C    6.551209   5.758668   1.201488   0.000000
    15  H    5.901094   4.684287   3.511911   2.692770   0.000000
    16  H    4.140927   2.750818   5.714692   4.646725   2.493507
    17  H    3.411350   3.904264   6.101856   5.124510   5.984882
    18  H    1.105835   2.142198   8.806501   7.612467   6.796316
    19  H    2.197038   1.099769   7.543388   6.360769   4.834540
                   16         17         18         19
    16  H    0.000000
    17  H    5.588125   0.000000
    18  H    4.810283   4.348475   0.000000
    19  H    2.511007   4.998450   2.494948   0.000000
 Stoichiometry    C12H5N2(1-)
 Framework group  C1[X(C12H5N2)]
 Deg. of freedom    51
 Full point group                 C1      NOp   1
 Largest Abelian subgroup         C1      NOp   1
 Largest concise Abelian subgroup C1      NOp   1
                         Standard orientation:                         
 ---------------------------------------------------------------------
 Center     Atomic      Atomic             Coordinates (Angstroms)
 Number     Number       Type             X           Y           Z
 ---------------------------------------------------------------------
      1          7           0        1.884108    2.868296   -0.131225
      2          6           0        1.356682    1.789921   -0.088388
      3          6           0        0.725334    0.475864   -0.037363
      4          6           0        1.554235   -0.691835   -0.002199
      5          6           0        0.943365   -1.989599   -0.007148
      6          6           0       -0.439277   -2.116087   -0.013232
      7          6           0       -1.307748   -0.968437   -0.000694
      8          6           0       -0.717957    0.373027   -0.001759
      9          6           0       -1.607718    1.498951    0.174439
     10          6           0       -3.008312    1.417069    0.134104
     11          6           0       -3.510127    0.090949   -0.120275
     12          6           0       -2.733935   -1.072516   -0.009574
     13          7           0        4.204026   -0.533886    0.067339
     14          6           0        3.003939   -0.586369    0.042608
     15          1           0        1.588838   -2.876968    0.001913
     16          1           0       -0.893043   -3.116536   -0.019376
     17          1           0       -1.106599    2.449922    0.423425
     18          1           0       -4.577784   -0.044810   -0.374340
     19          1           0       -3.179233   -2.078099   -0.007528
 ---------------------------------------------------------------------
 Rotational constants (GHZ):      1.3327152      0.5512572      0.3908697

 **********************************************************************

            Population analysis using the SCF density.

 **********************************************************************

 Orbital symmetries:
       Occupied  (A) (A) (A) (A) (A) (A) (A) (A) (A) (A) (A) (A)
                 (A) (A) (A) (A) (A) (A) (A) (A) (A) (A) (A) (A)
                 (A) (A) (A) (A) (A) (A) (A) (A) (A) (A) (A) (A)
                 (A) (A) (A) (A) (A) (A) (A) (A) (A) (A)
       Virtual   (A) (A) (A) (A) (A) (A) (A) (A) (A) (A) (A) (A)
                 (A) (A) (A) (A) (A) (A) (A) (A) (A) (A) (A) (A)
                 (A) (A) (A) (A) (A)
 The electronic state is 1-A.
 Alpha  occ. eigenvalues --  -13.98746 -13.98289  -9.90630  -9.90297  -9.89284
 Alpha  occ. eigenvalues --   -9.88748  -9.87877  -9.87026  -9.86597  -9.86455
 Alpha  occ. eigenvalues --   -9.82986  -9.81416  -9.79647  -9.69392  -0.72426
 Alpha  occ. eigenvalues --   -0.71408  -0.67331  -0.61352  -0.58763  -0.53900
 Alpha  occ. eigenvalues --   -0.50787  -0.45907  -0.41925  -0.39773  -0.34368
 Alpha  occ. eigenvalues --   -0.33776  -0.29340  -0.27484  -0.23951  -0.23887
 Alpha  occ. eigenvalues --   -0.21408  -0.21067  -0.18953  -0.16453  -0.16027
 Alpha  occ. eigenvalues --   -0.15199  -0.15079  -0.14594  -0.13112  -0.12475
 Alpha  occ. eigenvalues --   -0.11472  -0.09299  -0.06881  -0.01764   0.01109
 Alpha  occ. eigenvalues --    0.10043
 Alpha virt. eigenvalues --    0.15521   0.21287   0.25595   0.25896   0.26875
 Alpha virt. eigenvalues --    0.30468   0.32021   0.38370   0.42165   0.45026
 Alpha virt. eigenvalues --    0.47054   0.50555   0.54492   0.57033   0.57972
 Alpha virt. eigenvalues --    0.58937   0.60904   0.62794   0.66951   0.70146
 Alpha virt. eigenvalues --    0.71535   0.75673   0.79098   0.82619   0.84667
 Alpha virt. eigenvalues --    0.92857   0.94643   1.04725   1.09161
          Condensed to atoms (all electrons):
               1          2          3          4          5          6
     1  N    6.584346   0.657901  -0.010635  -0.000116  -0.000001   0.000000
     2  C    0.657901   4.926732   0.422875  -0.030450   0.000802   0.000016
     3  C   -0.010635   0.422875   4.790790   0.477588  -0.028728  -0.008705
     4  C   -0.000116  -0.030450   0.477588   4.784642   0.470527  -0.029265
     5  C   -0.000001   0.000802  -0.028728   0.470527   4.829995   0.523734
     6  C    0.000000   0.000016  -0.008705  -0.029265   0.523734   4.836054
     7  C   -0.000001   0.000778  -0.026558  -0.008455  -0.027291   0.466256
     8  C   -0.000019  -0.027606   0.460741  -0.025703  -0.007687  -0.024931
     9  C   -0.000120  -0.003852  -0.025166   0.000573   0.000032   0.000722
    10  C    0.000000   0.000015   0.000674  -0.000005   0.000000   0.000019
    11  C    0.000000   0.000001   0.000049   0.000000  -0.000008   0.000755
    12  C    0.000000  -0.000006   0.000771   0.000035   0.000744  -0.028397
    13  N   -0.000012  -0.000029  -0.000057  -0.011044  -0.000142  -0.000001
    14  C   -0.000031  -0.002597  -0.027776   0.427401  -0.029108   0.000857
    15  H    0.000000  -0.000017   0.001192  -0.025198   0.387889  -0.024772
    16  H    0.000000   0.000001   0.000022   0.001404  -0.026473   0.385860
    17  H   -0.000223   0.001910  -0.003948   0.000015  -0.000001  -0.000020
    18  H    0.000000   0.000000   0.000001   0.000000   0.000000  -0.000018
    19  H    0.000000   0.000000  -0.000015  -0.000001   0.000014  -0.003489
               7          8          9         10         11         12
     1  N   -0.000001  -0.000019  -0.000120   0.000000   0.000000   0.000000
     2  C    0.000778  -0.027606  -0.003852   0.000015   0.000001  -0.000006
     3  C   -0.026558   0.460741  -0.025166   0.000674   0.000049   0.000771
     4  C   -0.008455  -0.025703   0.000573  -0.000005   0.000000   0.000035
     5  C   -0.027291  -0.007687   0.000032   0.000000  -0.000008   0.000744
     6  C    0.466256  -0.024931   0.000722   0.000019   0.000755  -0.028397
     7  C    4.805850   0.446817  -0.029458  -0.008207  -0.029988   0.479743
     8  C    0.446817   4.827252   0.453962  -0.021072  -0.012702  -0.028882
     9  C   -0.029458   0.453962   4.916423   0.487845  -0.031573  -0.011337
    10  C   -0.008207  -0.021072   0.487845   5.364600   0.440918  -0.020985
    11  C   -0.029988  -0.012702  -0.031573   0.440918   4.893472   0.499970
    12  C    0.479743  -0.028882  -0.011337  -0.020985   0.499970   4.880120
    13  N    0.000000  -0.000001   0.000000   0.000000   0.000000   0.000000
    14  C    0.000015   0.000706  -0.000004   0.000000   0.000000   0.000000
    15  H    0.001323   0.000023   0.000000   0.000000   0.000000  -0.000016
    16  H   -0.024931   0.001215  -0.000016   0.000000   0.000017  -0.003309
    17  H    0.001235  -0.033814   0.381641  -0.031191   0.002032   0.000018
    18  H    0.001410   0.000009   0.001943  -0.031035   0.379485  -0.033323
    19  H   -0.027648   0.001219   0.000073   0.001151  -0.023706   0.381904
              13         14         15         16         17         18
     1  N   -0.000012  -0.000031   0.000000   0.000000  -0.000223   0.000000
     2  C   -0.000029  -0.002597  -0.000017   0.000001   0.001910   0.000000
     3  C   -0.000057  -0.027776   0.001192   0.000022  -0.003948   0.000001
     4  C   -0.011044   0.427401  -0.025198   0.001404   0.000015   0.000000
     5  C   -0.000142  -0.029108   0.387889  -0.026473  -0.000001   0.000000
     6  C   -0.000001   0.000857  -0.024772   0.385860  -0.000020  -0.000018
     7  C    0.000000   0.000015   0.001323  -0.024931   0.001235   0.001410
     8  C   -0.000001   0.000706   0.000023   0.001215  -0.033814   0.000009
     9  C    0.000000  -0.000004   0.000000  -0.000016   0.381641   0.001943
    10  C    0.000000   0.000000   0.000000   0.000000  -0.031191  -0.031035
    11  C    0.000000   0.000000   0.000000   0.000017   0.002032   0.379485
    12  C    0.000000   0.000000  -0.000016  -0.003309   0.000018  -0.033323
    13  N    6.592428   0.656660   0.000056   0.000000   0.000000   0.000000
    14  C    0.656660   4.933301  -0.003241  -0.000017   0.000000   0.000000
    15  H    0.000056  -0.003241   0.605972  -0.003878   0.000000   0.000000
    16  H    0.000000  -0.000017  -0.003878   0.614037   0.000000  -0.000002
    17  H    0.000000   0.000000   0.000000   0.000000   0.650875  -0.000024
    18  H    0.000000   0.000000   0.000000  -0.000002  -0.000024   0.660467
    19  H    0.000000   0.000000  -0.000001   0.001022   0.000003  -0.003293
              19
     1  N    0.000000
     2  C    0.000000
     3  C   -0.000015
     4  C   -0.000001
     5  C    0.000014
     6  C   -0.003489
     7  C   -0.027648
     8  C    0.001219
     9  C    0.000073
    10  C    0.001151
    11  C   -0.023706
    12  C    0.381904
    13  N    0.000000
    14  C    0.000000
    15  H   -0.000001
    16  H    0.001022
    17  H    0.000003
    18  H   -0.003293
    19  H    0.638123
 Mulliken charges:
               1
     1  N   -0.231089
     2  C    0.053526
     3  C   -0.023115
     4  C   -0.031948
     5  C   -0.094300
     6  C   -0.094675
     7  C   -0.020889
     8  C   -0.009527
     9  C   -0.141687
    10  C   -0.182726
    11  C   -0.118720
    12  C   -0.117052
    13  N   -0.237860
    14  C    0.043833
    15  H    0.060667
    16  H    0.055048
    17  H    0.031491
    18  H    0.024379
    19  H    0.034644
 Sum of Mulliken charges =  -1.00000
 Mulliken charges with hydrogens summed into heavy atoms:
               1
     1  N   -0.231089
     2  C    0.053526
     3  C   -0.023115
     4  C   -0.031948
     5  C   -0.033633
     6  C   -0.039627
     7  C   -0.020889
     8  C   -0.009527
     9  C   -0.110197
    10  C   -0.182726
    11  C   -0.094341
    12  C   -0.082408
    13  N   -0.237860
    14  C    0.043833
 Electronic spatial extent (au):  <R**2>=           2640.3697
 Charge=             -1.0000 electrons
 Dipole moment (field-independent basis, Debye):
    X=              0.2529    Y=             -5.0947    Z=             -0.2253  Tot=              5.1060
 Quadrupole moment (field-independent basis, Debye-Ang):
   XX=           -123.5998   YY=            -90.2521   ZZ=            -74.5445
   XY=              4.1973   XZ=              1.0416   YZ=             -0.1498
 Traceless Quadrupole moment (field-independent basis, Debye-Ang):
   XX=            -27.4677   YY=              5.8801   ZZ=             21.5876
   XY=              4.1973   XZ=              1.0416   YZ=             -0.1498
 Octapole moment (field-independent basis, Debye-Ang**2):
  XXX=            -36.1001  YYY=            -51.3631  ZZZ=             -0.2838  XYY=             -1.4144
  XXY=            -34.2001  XXZ=             -5.2137  XZZ=              6.9891  YZZ=              2.5708
  YYZ=              0.4996  XYZ=              3.8828
 Hexadecapole moment (field-independent basis, Debye-Ang**3):
 XXXX=          -3090.0575 YYYY=          -1132.3288 ZZZZ=            -63.2515 XXXY=            138.3300
 XXXZ=              7.6607 YYYX=            -37.0343 YYYZ=              3.4474 ZZZX=              0.3989
 ZZZY=             -1.5443 XXYY=           -663.4825 XXZZ=           -399.5679 YYZZ=           -183.1260
 XXYZ=             -5.3496 YYXZ=              8.7052 ZZXY=              3.6154
 N-N= 7.044097741433D+02 E-N=-2.730683622809D+03  KE= 5.545869738657D+02
 1\1\GINC-N044\FOpt\RB3LYP\STO-3G\C12H5N2(1-)\R2532\15-Jun-2021\0\\#N B
 3LYP/STO-3G OPT\\1Naph\\-1,1\N,1.0011064806,-0.089979247,-0.2926615318
 \C,2.2003007062,-0.0860300897,-0.223203995\C,3.6565899226,-0.071040953
 5,-0.1398588492\C,4.3363285109,1.1888631206,-0.0905373818\C,5.77019566
 34,1.2149700693,-0.0636855074\C,6.4951013141,0.0308551155,-0.052804336
 1\C,5.8497780681,-1.2556347515,-0.0536282547\C,4.3861808371,-1.3199801
 844,-0.0871264009\C,3.7661202759,-2.6158332287,0.0763167464\C,4.459727
 2926,-3.8358035157,0.0522715683\C,5.8763342071,-3.6995308098,-0.170833
 9246\C,6.5739066954,-2.4887171713,-0.0455248092\N,3.0215182235,3.49558
 155,-0.0518748845\C,3.5997605067,2.4424500402,-0.0629964552\H,6.280258
 1229,2.1863566886,-0.0440250853\H,7.5929393376,0.0663668116,-0.0346125
 451\H,2.6863220623,-2.5868110189,0.3013797111\H,6.4757797284,-4.597228
 2444,-0.4109911488\H,7.6724220446,-2.4433341812,-0.0191329162\\Version
 =ES64L-G09RevD.01\State=1-A\HF=-562.5053102\RMSD=8.426e-09\RMSF=3.552e
 -05\Dipole=1.7552585,0.975692,-0.050426\Quadrupole=2.0153653,-18.04617
 74,16.030812,7.9159545,-0.5599384,0.9450253\PG=C01 [X(C12H5N2)]\\@


 ADAM SMITH SAID, "THE REAL PRICE OF ANYTHING IS THE TOIL AND TROUBLE
 OF ACQUIRING IT."  BUT IN ALL UNDERTAKINGS WITH NATURE WE SHOULD FIRST
 READ CAREFULLY THE SMALL PRINT IN THE CONTRACT. THIS MIGHT DISCLOSE
 THAT THE REAL PRICE IS TO BE PAID BY THOSE WHO INHERIT THE DEPLETION
 AND DESPOILATION THAT FOLLOWS.
                               -- E. R. HARRISON IN "COSMOLOGY" (1980)
 Job cpu time:       0 days  0 hours  5 minutes 41.1 seconds.
 File lengths (MBytes):  RWF=      5 Int=      0 D2E=      0 Chk=      2 Scr=      1
 Normal termination of Gaussian 09 at Tue Jun 15 11:19:19 2021.
