 Entering Gaussian System, Link 0=/usr/local/apps//g09/g09
 Input=1.com
 Output=1.out
 Initial command:
 /usr/local/apps//g09/l1.exe "/tmp/bnp.472680.sequoia/Gau-13664.inp" -scrdir="/tmp/bnp.472680.sequoia/"
 Entering Link 1 = /usr/local/apps//g09/l1.exe PID=     13670.
  
 Copyright (c) 1988,1990,1992,1993,1995,1998,2003,2009,2013,
            Gaussian, Inc.  All Rights Reserved.
  
 This is part of the Gaussian(R) 09 program.  It is based on
 the Gaussian(R) 03 system (copyright 2003, Gaussian, Inc.),
 the Gaussian(R) 98 system (copyright 1998, Gaussian, Inc.),
 the Gaussian(R) 94 system (copyright 1995, Gaussian, Inc.),
 the Gaussian 92(TM) system (copyright 1992, Gaussian, Inc.),
 the Gaussian 90(TM) system (copyright 1990, Gaussian, Inc.),
 the Gaussian 88(TM) system (copyright 1988, Gaussian, Inc.),
 the Gaussian 86(TM) system (copyright 1986, Carnegie Mellon
 University), and the Gaussian 82(TM) system (copyright 1983,
 Carnegie Mellon University). Gaussian is a federally registered
 trademark of Gaussian, Inc.
  
 This software contains proprietary and confidential information,
 including trade secrets, belonging to Gaussian, Inc.
  
 This software is provided under written license and may be
 used, copied, transmitted, or stored only in accord with that
 written license.
  
 The following legend is applicable only to US Government
 contracts under FAR:
  
                    RESTRICTED RIGHTS LEGEND
  
 Use, reproduction and disclosure by the US Government is
 subject to restrictions as set forth in subparagraphs (a)
 and (c) of the Commercial Computer Software - Restricted
 Rights clause in FAR 52.227-19.
  
 Gaussian, Inc.
 340 Quinnipiac St., Bldg. 40, Wallingford CT 06492
  
  
 ---------------------------------------------------------------
 Warning -- This program may not be used in any manner that
 competes with the business of Gaussian, Inc. or will provide
 assistance to any competitor of Gaussian, Inc.  The licensee
 of this program is prohibited from giving any competitor of
 Gaussian, Inc. access to this program.  By using this program,
 the user acknowledges that Gaussian, Inc. is engaged in the
 business of creating and licensing software in the field of
 computational chemistry and represents and warrants to the
 licensee that it is not a competitor of Gaussian, Inc. and that
 it will not use this program in any manner prohibited above.
 ---------------------------------------------------------------
  

 Cite this work as:
 Gaussian 09, Revision D.01,
 M. J. Frisch, G. W. Trucks, H. B. Schlegel, G. E. Scuseria, 
 M. A. Robb, J. R. Cheeseman, G. Scalmani, V. Barone, B. Mennucci, 
 G. A. Petersson, H. Nakatsuji, M. Caricato, X. Li, H. P. Hratchian, 
 A. F. Izmaylov, J. Bloino, G. Zheng, J. L. Sonnenberg, M. Hada, 
 M. Ehara, K. Toyota, R. Fukuda, J. Hasegawa, M. Ishida, T. Nakajima, 
 Y. Honda, O. Kitao, H. Nakai, T. Vreven, J. A. Montgomery, Jr., 
 J. E. Peralta, F. Ogliaro, M. Bearpark, J. J. Heyd, E. Brothers, 
 K. N. Kudin, V. N. Staroverov, T. Keith, R. Kobayashi, J. Normand, 
 K. Raghavachari, A. Rendell, J. C. Burant, S. S. Iyengar, J. Tomasi, 
 M. Cossi, N. Rega, J. M. Millam, M. Klene, J. E. Knox, J. B. Cross, 
 V. Bakken, C. Adamo, J. Jaramillo, R. Gomperts, R. E. Stratmann, 
 O. Yazyev, A. J. Austin, R. Cammi, C. Pomelli, J. W. Ochterski, 
 R. L. Martin, K. Morokuma, V. G. Zakrzewski, G. A. Voth, 
 P. Salvador, J. J. Dannenberg, S. Dapprich, A. D. Daniels, 
 O. Farkas, J. B. Foresman, J. V. Ortiz, J. Cioslowski, 
 and D. J. Fox, Gaussian, Inc., Wallingford CT, 2013.
 
 ******************************************
 Gaussian 09:  ES64L-G09RevD.01 24-Apr-2013
                15-Jun-2021 
 ******************************************
 -------------------
 #N B3LYP/STO-3G OPT
 -------------------
 1/14=-1,18=20,19=15,26=3,38=1/1,3;
 2/9=110,12=2,17=6,18=5,40=1/2;
 3/6=3,11=2,16=1,25=1,30=1,71=1,74=-5/1,2,3;
 4//1;
 5/5=2,38=5/2;
 6/7=2,8=2,9=2,10=2,28=1/1;
 7//1,2,3,16;
 1/14=-1,18=20,19=15,26=3/3(2);
 2/9=110/2;
 99//99;
 2/9=110/2;
 3/6=3,11=2,16=1,25=1,30=1,71=1,74=-5/1,2,3;
 4/5=5,16=3,69=1/1;
 5/5=2,38=5/2;
 7//1,2,3,16;
 1/14=-1,18=20,19=15,26=3/3(-5);
 2/9=110/2;
 6/7=2,8=2,9=2,10=2,19=2,28=1/1;
 99/9=1/99;
 -----
 1Naph
 -----
 Symbolic Z-matrix:
 Charge = -1 Multiplicity = 1
 N                     2.44239   3.67311   0.01258 
 C                     3.41055   3.08891  -0.21588 
 C                     4.60285   2.34823  -0.56854 
 C                     5.7001    3.01806  -1.12159 
 C                     6.72376   2.30752  -1.74549 
 C                     6.85522   0.96231  -1.45388 
 C                     5.92752   0.32384  -0.63507 
 C                     4.70776   0.96062  -0.29032 
 C                     3.7459    0.19284   0.39856 
 C                     4.05539  -1.08463   0.87625 
 C                     5.32536  -1.61649   0.67319 
 C                     6.24559  -0.92692  -0.10824 
 N                     6.4104    5.35583  -0.27121 
 C                     6.01639   4.3643   -0.72578 
 H                     7.50947   2.8089   -2.3048 
 H                     2.75855   0.59455   0.62486 
 H                     3.31897  -1.64753   1.44328 
 H                     5.59757  -2.57095   1.11659 
 H                     7.23647  -1.3528   -0.26574 
 

 GradGradGradGradGradGradGradGradGradGradGradGradGradGradGradGradGradGrad
 Berny optimization.
 Initialization pass.
                           ----------------------------
                           !    Initial Parameters    !
                           ! (Angstroms and Degrees)  !
 --------------------------                            --------------------------
 ! Name  Definition              Value          Derivative Info.                !
 --------------------------------------------------------------------------------
 ! R1    R(1,2)                  1.1536         estimate D2E/DX2                !
 ! R2    R(2,3)                  1.4473         estimate D2E/DX2                !
 ! R3    R(3,4)                  1.3995         estimate D2E/DX2                !
 ! R4    R(3,8)                  1.4191         estimate D2E/DX2                !
 ! R5    R(4,5)                  1.3936         estimate D2E/DX2                !
 ! R6    R(4,14)                 1.4384         estimate D2E/DX2                !
 ! R7    R(5,6)                  1.3827         estimate D2E/DX2                !
 ! R8    R(5,15)                 1.087          estimate D2E/DX2                !
 ! R9    R(6,7)                  1.3924         estimate D2E/DX2                !
 ! R10   R(7,8)                  1.4185         estimate D2E/DX2                !
 ! R11   R(7,12)                 1.394          estimate D2E/DX2                !
 ! R12   R(8,9)                  1.4104         estimate D2E/DX2                !
 ! R13   R(9,10)                 1.3985         estimate D2E/DX2                !
 ! R14   R(9,16)                 1.0897         estimate D2E/DX2                !
 ! R15   R(10,11)                1.3917         estimate D2E/DX2                !
 ! R16   R(10,17)                1.0866         estimate D2E/DX2                !
 ! R17   R(11,12)                1.3903         estimate D2E/DX2                !
 ! R18   R(11,18)                1.0871         estimate D2E/DX2                !
 ! R19   R(12,19)                1.09           estimate D2E/DX2                !
 ! R20   R(13,14)                1.1597         estimate D2E/DX2                !
 ! A1    A(2,3,4)              119.8195         estimate D2E/DX2                !
 ! A2    A(2,3,8)              120.9007         estimate D2E/DX2                !
 ! A3    A(4,3,8)              119.178          estimate D2E/DX2                !
 ! A4    A(3,4,5)              120.5853         estimate D2E/DX2                !
 ! A5    A(3,4,14)             120.7717         estimate D2E/DX2                !
 ! A6    A(5,4,14)             116.0319         estimate D2E/DX2                !
 ! A7    A(4,5,6)              118.1293         estimate D2E/DX2                !
 ! A8    A(4,5,15)             121.7457         estimate D2E/DX2                !
 ! A9    A(6,5,15)             119.2445         estimate D2E/DX2                !
 ! A10   A(5,6,7)              120.4498         estimate D2E/DX2                !
 ! A11   A(6,7,8)              120.6635         estimate D2E/DX2                !
 ! A12   A(6,7,12)             118.7942         estimate D2E/DX2                !
 ! A13   A(8,7,12)             120.4741         estimate D2E/DX2                !
 ! A14   A(3,8,7)              117.0563         estimate D2E/DX2                !
 ! A15   A(3,8,9)              125.284          estimate D2E/DX2                !
 ! A16   A(7,8,9)              117.4362         estimate D2E/DX2                !
 ! A17   A(8,9,10)             120.8745         estimate D2E/DX2                !
 ! A18   A(8,9,16)             121.2437         estimate D2E/DX2                !
 ! A19   A(10,9,16)            117.795          estimate D2E/DX2                !
 ! A20   A(9,10,11)            120.0776         estimate D2E/DX2                !
 ! A21   A(9,10,17)            120.0965         estimate D2E/DX2                !
 ! A22   A(11,10,17)           119.7754         estimate D2E/DX2                !
 ! A23   A(10,11,12)           119.7648         estimate D2E/DX2                !
 ! A24   A(10,11,18)           120.3001         estimate D2E/DX2                !
 ! A25   A(12,11,18)           119.9336         estimate D2E/DX2                !
 ! A26   A(7,12,11)            120.426          estimate D2E/DX2                !
 ! A27   A(7,12,19)            120.226          estimate D2E/DX2                !
 ! A28   A(11,12,19)           119.2841         estimate D2E/DX2                !
 ! A29   L(1,2,3,13,-1)        180.9125         estimate D2E/DX2                !
 ! A30   L(4,14,13,1,-1)       184.7525         estimate D2E/DX2                !
 ! A31   L(1,2,3,13,-2)        182.8112         estimate D2E/DX2                !
 ! A32   L(4,14,13,1,-2)       169.7155         estimate D2E/DX2                !
 ! D1    D(2,3,4,5)           -165.2206         estimate D2E/DX2                !
 ! D2    D(2,3,4,14)            33.8222         estimate D2E/DX2                !
 ! D3    D(8,3,4,5)             18.4139         estimate D2E/DX2                !
 ! D4    D(8,3,4,14)          -142.5433         estimate D2E/DX2                !
 ! D5    D(2,3,8,7)           -178.2013         estimate D2E/DX2                !
 ! D6    D(2,3,8,9)             -3.7921         estimate D2E/DX2                !
 ! D7    D(4,3,8,7)             -1.8762         estimate D2E/DX2                !
 ! D8    D(4,3,8,9)            172.5329         estimate D2E/DX2                !
 ! D9    D(3,4,5,6)            -19.7924         estimate D2E/DX2                !
 ! D10   D(3,4,5,15)           171.0349         estimate D2E/DX2                !
 ! D11   D(14,4,5,6)           142.0284         estimate D2E/DX2                !
 ! D12   D(14,4,5,15)          -27.1444         estimate D2E/DX2                !
 ! D13   D(4,5,6,7)              4.5757         estimate D2E/DX2                !
 ! D14   D(15,5,6,7)           174.0265         estimate D2E/DX2                !
 ! D15   D(5,6,7,8)             11.8671         estimate D2E/DX2                !
 ! D16   D(5,6,7,12)          -165.1449         estimate D2E/DX2                !
 ! D17   D(6,7,8,3)            -13.0074         estimate D2E/DX2                !
 ! D18   D(6,7,8,9)            172.1335         estimate D2E/DX2                !
 ! D19   D(12,7,8,3)           163.9544         estimate D2E/DX2                !
 ! D20   D(12,7,8,9)           -10.9047         estimate D2E/DX2                !
 ! D21   D(6,7,12,11)         -177.636          estimate D2E/DX2                !
 ! D22   D(6,7,12,19)            5.2903         estimate D2E/DX2                !
 ! D23   D(8,7,12,11)            5.3461         estimate D2E/DX2                !
 ! D24   D(8,7,12,19)         -171.7275         estimate D2E/DX2                !
 ! D25   D(3,8,9,10)          -166.0862         estimate D2E/DX2                !
 ! D26   D(3,8,9,16)            10.4503         estimate D2E/DX2                !
 ! D27   D(7,8,9,10)             8.3038         estimate D2E/DX2                !
 ! D28   D(7,8,9,16)          -175.1598         estimate D2E/DX2                !
 ! D29   D(8,9,10,11)           -0.104          estimate D2E/DX2                !
 ! D30   D(8,9,10,17)          177.3044         estimate D2E/DX2                !
 ! D31   D(16,9,10,11)        -176.7567         estimate D2E/DX2                !
 ! D32   D(16,9,10,17)           0.6517         estimate D2E/DX2                !
 ! D33   D(9,10,11,12)          -5.7866         estimate D2E/DX2                !
 ! D34   D(9,10,11,18)         174.6598         estimate D2E/DX2                !
 ! D35   D(17,10,11,12)        176.7966         estimate D2E/DX2                !
 ! D36   D(17,10,11,18)         -2.757          estimate D2E/DX2                !
 ! D37   D(10,11,12,7)           3.1683         estimate D2E/DX2                !
 ! D38   D(10,11,12,19)       -179.7307         estimate D2E/DX2                !
 ! D39   D(18,11,12,7)        -177.2765         estimate D2E/DX2                !
 ! D40   D(18,11,12,19)         -0.1755         estimate D2E/DX2                !
 --------------------------------------------------------------------------------
 Trust Radius=3.00D-01 FncErr=1.00D-07 GrdErr=1.00D-06
 Number of steps in this run=    102 maximum allowed number of steps=    114.
 GradGradGradGradGradGradGradGradGradGradGradGradGradGradGradGradGradGrad

                          Input orientation:                          
 ---------------------------------------------------------------------
 Center     Atomic      Atomic             Coordinates (Angstroms)
 Number     Number       Type             X           Y           Z
 ---------------------------------------------------------------------
      1          7           0        2.442390    3.673110    0.012580
      2          6           0        3.410550    3.088910   -0.215880
      3          6           0        4.602850    2.348230   -0.568540
      4          6           0        5.700100    3.018060   -1.121590
      5          6           0        6.723760    2.307520   -1.745490
      6          6           0        6.855220    0.962310   -1.453880
      7          6           0        5.927520    0.323840   -0.635070
      8          6           0        4.707760    0.960620   -0.290320
      9          6           0        3.745900    0.192840    0.398560
     10          6           0        4.055390   -1.084630    0.876250
     11          6           0        5.325360   -1.616490    0.673190
     12          6           0        6.245590   -0.926920   -0.108240
     13          7           0        6.410400    5.355830   -0.271210
     14          6           0        6.016390    4.364300   -0.725780
     15          1           0        7.509470    2.808900   -2.304800
     16          1           0        2.758550    0.594550    0.624860
     17          1           0        3.318970   -1.647530    1.443280
     18          1           0        5.597570   -2.570950    1.116590
     19          1           0        7.236470   -1.352800   -0.265740
 ---------------------------------------------------------------------
                    Distance matrix (angstroms):
                    1          2          3          4          5
     1  N    0.000000
     2  C    1.153611   0.000000
     3  C    2.600114   1.447258   0.000000
     4  C    3.511140   2.463203   1.399462   0.000000
     5  C    4.825534   3.731975   2.425928   1.393556   0.000000
     6  C    5.382565   4.233299   2.788866   2.381350   1.382718
     7  C    4.876801   3.762509   2.420192   2.747225   2.408738
     8  C    3.547006   2.493574   1.419110   2.430804   2.827705
     9  C    3.736362   2.979466   2.513036   3.756544   4.235147
    10  C    5.097429   4.361995   3.764526   4.850619   5.049792
    11  C    6.060346   5.157299   4.216980   4.984046   4.816990
    12  C    5.969858   4.916902   3.692841   4.109417   3.656615
    13  N    4.319397   3.760464   3.521548   2.587053   3.400572
    14  C    3.714350   2.945678   2.467257   1.438425   2.402192
    15  H    5.638476   4.609028   3.416907   2.171993   1.086991
    16  H    3.154739   2.711785   2.810879   4.192398   4.927039
    17  H    5.578934   5.019468   4.654231   5.832330   6.115821
    18  H    7.082534   6.212290   5.294097   6.021378   5.767086
    19  H    6.951290   5.862503   4.552501   4.711404   3.981265
                    6          7          8          9         10
     6  C    0.000000
     7  C    1.392380   0.000000
     8  C    2.442429   1.418505   0.000000
     9  C    3.700201   2.417647   1.410396   0.000000
    10  C    4.178339   2.787965   2.443260   1.398535   0.000000
    11  C    3.676290   2.416407   2.819801   2.417393   1.391737
    12  C    2.398246   1.393958   2.441492   2.785527   2.406464
    13  N    4.571607   5.068184   4.713515   5.848471   6.952860
    14  C    3.578729   4.042455   3.672489   4.880609   6.008565
    15  H    2.135884   3.386161   3.914569   5.321314   6.099945
    16  H    4.608591   3.420976   2.184258   1.089698   2.136501
    17  H    5.264016   3.874322   3.425865   2.158859   1.086597
    18  H    4.546749   3.399557   3.904247   3.403349   2.155279
    19  H    2.629974   2.158906   3.427374   3.874839   3.390476
                   11         12         13         14         15
    11  C    0.000000
    12  C    1.390310   0.000000
    13  N    7.119161   6.287024   0.000000
    14  C    6.180978   5.332063   1.159745   0.000000
    15  H    5.763926   4.514268   3.439520   2.672426   0.000000
    16  H    3.388148   3.874501   6.067020   5.162244   6.004789
    17  H    2.149326   3.389926   7.844964   6.937074   7.174131
    18  H    1.087058   2.150110   8.088295   7.188006   6.656129
    19  H    2.145568   1.089965   6.759300   5.863912   4.642418
                   16         17         18         19
    16  H    0.000000
    17  H    2.451694   0.000000
    18  H    4.280447   2.480211   0.000000
    19  H    4.963578   4.284206   2.465911   0.000000
 Stoichiometry    C12H5N2(1-)
 Framework group  C1[X(C12H5N2)]
 Deg. of freedom    51
 Full point group                 C1      NOp   1
 Largest Abelian subgroup         C1      NOp   1
 Largest concise Abelian subgroup C1      NOp   1
                         Standard orientation:                         
 ---------------------------------------------------------------------
 Center     Atomic      Atomic             Coordinates (Angstroms)
 Number     Number       Type             X           Y           Z
 ---------------------------------------------------------------------
      1          7           0        1.821618    2.892553   -0.295627
      2          6           0        1.347655    1.841442   -0.258995
      3          6           0        0.756825    0.520496   -0.283042
      4          6           0        1.581103   -0.610338   -0.299598
      5          6           0        1.062253   -1.861230   -0.628325
      6          6           0       -0.304294   -2.046912   -0.528425
      7          6           0       -1.139190   -0.981470   -0.202079
      8          6           0       -0.650201    0.350053   -0.211623
      9          6           0       -1.588835    1.388310   -0.037820
     10          6           0       -2.914607    1.106898    0.307197
     11          6           0       -3.325105   -0.211401    0.481875
     12          6           0       -2.447722   -1.251200    0.195551
     13          7           0        3.748926   -0.708858    1.108833
     14          6           0        2.842229   -0.611959    0.392229
     15          1           0        1.705079   -2.723237   -0.787285
     16          1           0       -1.294354    2.434809   -0.112407
     17          1           0       -3.616408    1.918093    0.480781
     18          1           0       -4.329913   -0.430887    0.833845
     19          1           0       -2.778870   -2.280777    0.330959
 ---------------------------------------------------------------------
 Rotational constants (GHZ):      1.2638490      0.5922901      0.4295035
 Standard basis: STO-3G (5D, 7F)
 There are    75 symmetry adapted cartesian basis functions of A   symmetry.
 There are    75 symmetry adapted basis functions of A   symmetry.
    75 basis functions,   225 primitive gaussians,    75 cartesian basis functions
    46 alpha electrons       46 beta electrons
       nuclear repulsion energy       719.8363910138 Hartrees.
 NAtoms=   19 NActive=   19 NUniq=   19 SFac= 1.00D+00 NAtFMM=   60 NAOKFM=F Big=F
 Integral buffers will be    131072 words long.
 Raffenetti 2 integral format.
 Two-electron integral symmetry is turned on.
 One-electron integrals computed using PRISM.
 NBasis=    75 RedAO= T EigKep=  1.52D-01  NBF=    75
 NBsUse=    75 1.00D-06 EigRej= -1.00D+00 NBFU=    75
 ExpMin= 1.69D-01 ExpMax= 9.91D+01 ExpMxC= 9.91D+01 IAcc=1 IRadAn=         1 AccDes= 0.00D+00
 Harris functional with IExCor=  402 and IRadAn=       1 diagonalized for initial guess.
 HarFok:  IExCor=  402 AccDes= 0.00D+00 IRadAn=         1 IDoV= 1 UseB2=F ITyADJ=14
 ICtDFT=  3500011 ScaDFX=  1.000000  1.000000  1.000000  1.000000
 FoFCou: FMM=F IPFlag=           0 FMFlag=      100000 FMFlg1=           0
         NFxFlg=           0 DoJE=T BraDBF=F KetDBF=T FulRan=T
         wScrn=  0.000000 ICntrl=     500 IOpCl=  0 I1Cent=   200000004 NGrid=           0
         NMat0=    1 NMatS0=      1 NMatT0=    0 NMatD0=    1 NMtDS0=    0 NMtDT0=    0
 Petite list used in FoFCou.
 Keep R1 ints in memory in canonical form, NReq=4993994.
 Requested convergence on RMS density matrix=1.00D-08 within 128 cycles.
 Requested convergence on MAX density matrix=1.00D-06.
 Requested convergence on             energy=1.00D-06.
 No special actions if energy rises.
 Integral accuracy reduced to 1.0D-05 until final iterations.
 Initial convergence to 1.0D-05 achieved.  Increase integral accuracy.
 SCF Done:  E(RB3LYP) =  -562.467633976     A.U. after   21 cycles
            NFock= 21  Conv=0.79D-08     -V/T= 2.0127

 **********************************************************************

            Population analysis using the SCF density.

 **********************************************************************

 Orbital symmetries:
       Occupied  (A) (A) (A) (A) (A) (A) (A) (A) (A) (A) (A) (A)
                 (A) (A) (A) (A) (A) (A) (A) (A) (A) (A) (A) (A)
                 (A) (A) (A) (A) (A) (A) (A) (A) (A) (A) (A) (A)
                 (A) (A) (A) (A) (A) (A) (A) (A) (A) (A)
       Virtual   (A) (A) (A) (A) (A) (A) (A) (A) (A) (A) (A) (A)
                 (A) (A) (A) (A) (A) (A) (A) (A) (A) (A) (A) (A)
                 (A) (A) (A) (A) (A)
 The electronic state is 1-A.
 Alpha  occ. eigenvalues --  -13.96997 -13.96656  -9.87994  -9.87993  -9.87537
 Alpha  occ. eigenvalues --   -9.87404  -9.86529  -9.86475  -9.85748  -9.85579
 Alpha  occ. eigenvalues --   -9.85476  -9.83258  -9.80614  -9.68425  -0.72909
 Alpha  occ. eigenvalues --   -0.72117  -0.67804  -0.63421  -0.57213  -0.55828
 Alpha  occ. eigenvalues --   -0.52177  -0.45114  -0.41943  -0.40863  -0.34589
 Alpha  occ. eigenvalues --   -0.33049  -0.31504  -0.25742  -0.25007  -0.24126
 Alpha  occ. eigenvalues --   -0.22859  -0.20631  -0.20329  -0.16790  -0.16329
 Alpha  occ. eigenvalues --   -0.15603  -0.14119  -0.13491  -0.13088  -0.12479
 Alpha  occ. eigenvalues --   -0.11698  -0.09408  -0.06805  -0.03171   0.01532
 Alpha  occ. eigenvalues --    0.11709
 Alpha virt. eigenvalues --    0.17690   0.22845   0.24859   0.29470   0.29976
 Alpha virt. eigenvalues --    0.32553   0.36044   0.36706   0.44867   0.49486
 Alpha virt. eigenvalues --    0.49581   0.54227   0.55764   0.59213   0.60768
 Alpha virt. eigenvalues --    0.62474   0.64095   0.65486   0.72208   0.73381
 Alpha virt. eigenvalues --    0.74752   0.78526   0.82933   0.86578   0.89039
 Alpha virt. eigenvalues --    0.97613   1.00560   1.14102   1.18172
          Condensed to atoms (all electrons):
               1          2          3          4          5          6
     1  N    6.587839   0.689980  -0.011734  -0.000147  -0.000001   0.000000
     2  C    0.689980   4.887773   0.428320  -0.030792   0.000883   0.000051
     3  C   -0.011734   0.428320   4.799952   0.488761  -0.032671  -0.012784
     4  C   -0.000147  -0.030792   0.488761   4.801979   0.465320  -0.026384
     5  C   -0.000001   0.000883  -0.032671   0.465320   4.896518   0.492835
     6  C    0.000000   0.000051  -0.012784  -0.026384   0.492835   5.378508
     7  C   -0.000002   0.000892  -0.033883  -0.013311  -0.032051   0.455323
     8  C   -0.000074  -0.028214   0.479365  -0.030988  -0.010687  -0.028444
     9  C   -0.000077  -0.004036  -0.028633   0.000811   0.000052   0.001120
    10  C    0.000000   0.000012   0.000778  -0.000006   0.000000   0.000040
    11  C    0.000000   0.000000   0.000045   0.000001  -0.000018   0.001128
    12  C    0.000000  -0.000007   0.000960   0.000038   0.001377  -0.042506
    13  N   -0.000004   0.000006  -0.000167  -0.011681  -0.000602  -0.000008
    14  C   -0.000005  -0.003158  -0.032607   0.415039  -0.033350   0.001407
    15  H    0.000000  -0.000018   0.001205  -0.032801   0.390514  -0.036479
    16  H   -0.000081   0.001123  -0.003080   0.000005  -0.000002  -0.000028
    17  H    0.000000   0.000000  -0.000017   0.000000   0.000000   0.000001
    18  H    0.000000   0.000000   0.000001   0.000000   0.000000  -0.000026
    19  H    0.000000   0.000000  -0.000018   0.000000   0.000042  -0.002432
               7          8          9         10         11         12
     1  N   -0.000002  -0.000074  -0.000077   0.000000   0.000000   0.000000
     2  C    0.000892  -0.028214  -0.004036   0.000012   0.000000  -0.000007
     3  C   -0.033883   0.479365  -0.028633   0.000778   0.000045   0.000960
     4  C   -0.013311  -0.030988   0.000811  -0.000006   0.000001   0.000038
     5  C   -0.032051  -0.010687   0.000052   0.000000  -0.000018   0.001377
     6  C    0.455323  -0.028444   0.001120   0.000040   0.001128  -0.042506
     7  C    4.830079   0.449751  -0.028861  -0.011561  -0.031106   0.485859
     8  C    0.449751   4.801659   0.476269  -0.028376  -0.009692  -0.034958
     9  C   -0.028861   0.476269   4.839708   0.521015  -0.031133  -0.011739
    10  C   -0.011561  -0.028376   0.521015   4.821610   0.490229  -0.030603
    11  C   -0.031106  -0.009692  -0.031133   0.490229   4.841405   0.515518
    12  C    0.485859  -0.034958  -0.011739  -0.030603   0.515518   4.828515
    13  N    0.000000   0.000001   0.000000   0.000000   0.000000   0.000000
    14  C    0.000113   0.000775  -0.000004   0.000000   0.000000   0.000002
    15  H    0.002149  -0.000044   0.000001   0.000000   0.000000  -0.000006
    16  H    0.001429  -0.024662   0.386522  -0.027947   0.001534   0.000021
    17  H    0.000042   0.001397  -0.025816   0.390514  -0.026951   0.001543
    18  H    0.001532   0.000020   0.001510  -0.026751   0.390094  -0.026457
    19  H   -0.024982   0.001524   0.000026   0.001537  -0.027345   0.388811
              13         14         15         16         17         18
     1  N   -0.000004  -0.000005   0.000000  -0.000081   0.000000   0.000000
     2  C    0.000006  -0.003158  -0.000018   0.001123   0.000000   0.000000
     3  C   -0.000167  -0.032607   0.001205  -0.003080  -0.000017   0.000001
     4  C   -0.011681   0.415039  -0.032801   0.000005   0.000000   0.000000
     5  C   -0.000602  -0.033350   0.390514  -0.000002   0.000000   0.000000
     6  C   -0.000008   0.001407  -0.036479  -0.000028   0.000001  -0.000026
     7  C    0.000000   0.000113   0.002149   0.001429   0.000042   0.001532
     8  C    0.000001   0.000775  -0.000044  -0.024662   0.001397   0.000020
     9  C    0.000000  -0.000004   0.000001   0.386522  -0.025816   0.001510
    10  C    0.000000   0.000000   0.000000  -0.027947   0.390514  -0.026751
    11  C    0.000000   0.000000   0.000000   0.001534  -0.026951   0.390094
    12  C    0.000000   0.000002  -0.000006   0.000021   0.001543  -0.026457
    13  N    6.590731   0.684017   0.000059   0.000000   0.000000   0.000000
    14  C    0.684017   4.916105  -0.003256  -0.000001   0.000000   0.000000
    15  H    0.000059  -0.003256   0.642629   0.000000   0.000000   0.000000
    16  H    0.000000  -0.000001   0.000000   0.610193  -0.004111  -0.000040
    17  H    0.000000   0.000000   0.000000  -0.004111   0.615450  -0.003864
    18  H    0.000000   0.000000   0.000000  -0.000040  -0.003864   0.621534
    19  H    0.000000   0.000000  -0.000006   0.000003  -0.000040  -0.004004
              19
     1  N    0.000000
     2  C    0.000000
     3  C   -0.000018
     4  C    0.000000
     5  C    0.000042
     6  C   -0.002432
     7  C   -0.024982
     8  C    0.001524
     9  C    0.000026
    10  C    0.001537
    11  C   -0.027345
    12  C    0.388811
    13  N    0.000000
    14  C    0.000000
    15  H   -0.000006
    16  H    0.000003
    17  H   -0.000040
    18  H   -0.004004
    19  H    0.601973
 Mulliken charges:
               1
     1  N   -0.265695
     2  C    0.057185
     3  C   -0.043791
     4  C   -0.025845
     5  C   -0.138159
     6  C   -0.181320
     7  C   -0.051414
     8  C   -0.014622
     9  C   -0.096736
    10  C   -0.100492
    11  C   -0.113709
    12  C   -0.076367
    13  N   -0.262352
    14  C    0.054924
    15  H    0.036053
    16  H    0.059123
    17  H    0.051853
    18  H    0.046452
    19  H    0.064911
 Sum of Mulliken charges =  -1.00000
 Mulliken charges with hydrogens summed into heavy atoms:
               1
     1  N   -0.265695
     2  C    0.057185
     3  C   -0.043791
     4  C   -0.025845
     5  C   -0.102106
     6  C   -0.181320
     7  C   -0.051414
     8  C   -0.014622
     9  C   -0.037613
    10  C   -0.048638
    11  C   -0.067257
    12  C   -0.011456
    13  N   -0.262352
    14  C    0.054924
 Electronic spatial extent (au):  <R**2>=           2495.9275
 Charge=             -1.0000 electrons
 Dipole moment (field-independent basis, Debye):
    X=             -4.4892    Y=              1.0245    Z=             -0.2419  Tot=              4.6109
 Quadrupole moment (field-independent basis, Debye-Ang):
   XX=           -102.0641   YY=            -96.3893   ZZ=            -77.1764
   XY=             -5.3634   XZ=             -6.1373   YZ=             -0.3224
 Traceless Quadrupole moment (field-independent basis, Debye-Ang):
   XX=            -10.1875   YY=             -4.5127   ZZ=             14.7002
   XY=             -5.3634   XZ=             -6.1373   YZ=             -0.3224
 Octapole moment (field-independent basis, Debye-Ang**2):
  XXX=            -71.9551  YYY=             -9.1826  ZZZ=             -0.5882  XYY=            -23.5457
  XXY=              0.0338  XXZ=            -24.5354  XZZ=             -4.7370  YZZ=              4.8239
  YYZ=             10.9453  XYZ=              8.4504
 Hexadecapole moment (field-independent basis, Debye-Ang**3):
 XXXX=          -2443.8513 YYYY=          -1165.9679 ZZZZ=           -156.2118 XXXY=             36.2652
 XXXZ=           -122.0988 YYYX=           -100.2746 YYYZ=             -6.9065 ZZZX=             -3.0728
 ZZZY=             -3.3842 XXYY=           -559.4916 XXZZ=           -416.9009 YYZZ=           -192.4179
 XXYZ=             24.3229 YYXZ=              1.9037 ZZXY=              9.5467
 N-N= 7.198363910138D+02 E-N=-2.762232887578D+03  KE= 5.554313840760D+02
 Calling FoFJK, ICntrl=      2127 FMM=F ISym2X=0 I1Cent= 0 IOpClX= 0 NMat=1 NMatS=1 NMatT=0.
 ***** Axes restored to original set *****
 -------------------------------------------------------------------
 Center     Atomic                   Forces (Hartrees/Bohr)
 Number     Number              X              Y              Z
 -------------------------------------------------------------------
      1        7          -0.106602139    0.063815338    0.025426136
      2        6           0.102990017   -0.060627049   -0.018966605
      3        6          -0.028390561    0.002815349    0.013671316
      4        6           0.009052958    0.032974990    0.000967188
      5        6           0.014831266   -0.030076071   -0.006793100
      6        6           0.064353222   -0.009274015   -0.034601143
      7        6           0.001513023    0.014553279   -0.008865760
      8        6          -0.024283995   -0.004378073   -0.001752305
      9        6          -0.021336061   -0.020954661    0.015943600
     10        6          -0.020795920    0.023762242   -0.001252888
     11        6           0.026082511   -0.013926663   -0.004897085
     12        6          -0.003247973   -0.031764402    0.027029681
     13        7           0.036526062    0.097572435    0.036915596
     14        6          -0.043971244   -0.069149496   -0.032473517
     15        1           0.000879459    0.012195635   -0.010592265
     16        1          -0.006647201    0.005570491   -0.000641589
     17        1          -0.007336793   -0.003621197    0.004627043
     18        1           0.000280604   -0.008630352    0.002169542
     19        1           0.006102766   -0.000857781   -0.005913846
 -------------------------------------------------------------------
 Cartesian Forces:  Max     0.106602139 RMS     0.033965059

 GradGradGradGradGradGradGradGradGradGradGradGradGradGradGradGradGradGrad
 Berny optimization.
 FormGI is forming the generalized inverse of G from B-inverse, IUseBI=4.
 Internal  Forces:  Max     0.126666448 RMS     0.022924937
 Search for a local minimum.
 Step number   1 out of a maximum of  102
 All quantities printed in internal units (Hartrees-Bohrs-Radians)
 Mixed Optimization -- RFO/linear search
 Second derivative matrix not updated -- first step.
 ITU=  0
     Eigenvalues ---    0.01464   0.01464   0.01938   0.01942   0.02001
     Eigenvalues ---    0.02026   0.02047   0.02115   0.02154   0.02185
     Eigenvalues ---    0.02195   0.02200   0.02208   0.02240   0.02294
     Eigenvalues ---    0.02698   0.04870   0.04870   0.15802   0.15970
     Eigenvalues ---    0.15980   0.15987   0.16000   0.21972   0.22406
     Eigenvalues ---    0.22928   0.23810   0.24318   0.24627   0.24923
     Eigenvalues ---    0.24963   0.34817   0.34848   0.35155   0.35163
     Eigenvalues ---    0.35209   0.38004   0.38606   0.39802   0.41026
     Eigenvalues ---    0.41372   0.43511   0.44294   0.45603   0.45897
     Eigenvalues ---    0.46256   0.46365   0.47022   0.47875   1.27960
     Eigenvalues ---    1.32068
 RFO step:  Lambda=-6.95808847D-02 EMin= 1.46362523D-02
 Linear search not attempted -- first point.
 Maximum step size (   0.300) exceeded in Quadratic search.
    -- Step size scaled by   0.865
 Iteration  1 RMS(Cart)=  0.09279674 RMS(Int)=  0.00382640
 Iteration  2 RMS(Cart)=  0.00543006 RMS(Int)=  0.00037537
 Iteration  3 RMS(Cart)=  0.00003488 RMS(Int)=  0.00037483
 Iteration  4 RMS(Cart)=  0.00000001 RMS(Int)=  0.00037483
 Variable       Old X    -DE/DX   Delta X   Delta X   Delta X     New X
                                 (Linear)    (Quad)   (Total)
    R1        2.18001   0.12667   0.00000   0.07881   0.07881   2.25881
    R2        2.73492   0.00604   0.00000   0.01147   0.01147   2.74639
    R3        2.64460   0.03996   0.00000   0.06432   0.06430   2.70890
    R4        2.68173   0.02064   0.00000   0.03568   0.03545   2.71718
    R5        2.63344   0.05501   0.00000   0.08818   0.08848   2.72192
    R6        2.71823   0.02634   0.00000   0.04873   0.04873   2.76696
    R7        2.61296   0.02747   0.00000   0.04302   0.04323   2.65619
    R8        2.05412   0.01171   0.00000   0.02405   0.02405   2.07816
    R9        2.63122   0.05941   0.00000   0.09626   0.09619   2.72741
   R10        2.68059   0.04675   0.00000   0.08432   0.08429   2.76487
   R11        2.63420   0.04379   0.00000   0.07241   0.07263   2.70683
   R12        2.66526   0.02793   0.00000   0.04735   0.04729   2.71256
   R13        2.64285  -0.00390   0.00000  -0.00816  -0.00838   2.63446
   R14        2.05923   0.00794   0.00000   0.01643   0.01643   2.07566
   R15        2.63000   0.03695   0.00000   0.05753   0.05737   2.68737
   R16        2.05337   0.00926   0.00000   0.01900   0.01900   2.07237
   R17        2.62731   0.00958   0.00000   0.01534   0.01540   2.64271
   R18        2.05424   0.00853   0.00000   0.01753   0.01753   2.07177
   R19        2.05973   0.00674   0.00000   0.01395   0.01395   2.07369
   R20        2.19160   0.11029   0.00000   0.07071   0.07071   2.26231
    A1        2.09124   0.00106   0.00000   0.00552   0.00546   2.09671
    A2        2.11012  -0.00353   0.00000  -0.00742  -0.00750   2.10262
    A3        2.08005   0.00265   0.00000   0.00366   0.00336   2.08341
    A4        2.10461  -0.00599   0.00000  -0.01552  -0.01607   2.08854
    A5        2.10786  -0.00520   0.00000  -0.00736  -0.00873   2.09913
    A6        2.02514   0.01348   0.00000   0.04619   0.04523   2.07037
    A7        2.06175   0.01701   0.00000   0.05133   0.05152   2.11327
    A8        2.12486  -0.01736   0.00000  -0.05681  -0.05764   2.06723
    A9        2.08121   0.00125   0.00000   0.01422   0.01359   2.09480
   A10        2.10225  -0.02506   0.00000  -0.06593  -0.06552   2.03673
   A11        2.10598   0.01262   0.00000   0.03461   0.03423   2.14020
   A12        2.07335   0.00786   0.00000   0.01713   0.01697   2.09032
   A13        2.10267  -0.02037   0.00000  -0.05089  -0.05050   2.05217
   A14        2.04302  -0.00065   0.00000  -0.00353  -0.00394   2.03908
   A15        2.18662  -0.00827   0.00000  -0.02363  -0.02346   2.16316
   A16        2.04965   0.00891   0.00000   0.02669   0.02692   2.07657
   A17        2.10966  -0.00127   0.00000  -0.00683  -0.00711   2.10254
   A18        2.11610  -0.00288   0.00000  -0.00981  -0.00967   2.10643
   A19        2.05591   0.00416   0.00000   0.01691   0.01705   2.07296
   A20        2.09575   0.00558   0.00000   0.01057   0.01016   2.10591
   A21        2.09608  -0.00438   0.00000  -0.01113  -0.01095   2.08513
   A22        2.09047  -0.00117   0.00000   0.00096   0.00115   2.09162
   A23        2.09029   0.00162   0.00000   0.00178   0.00166   2.09195
   A24        2.09963  -0.00207   0.00000  -0.00565  -0.00559   2.09404
   A25        2.09324   0.00045   0.00000   0.00384   0.00390   2.09714
   A26        2.10183   0.00565   0.00000   0.02042   0.02055   2.12238
   A27        2.09834  -0.00693   0.00000  -0.02536  -0.02563   2.07271
   A28        2.08190   0.00143   0.00000   0.00628   0.00602   2.08792
   A29        3.15752   0.00123   0.00000   0.01265   0.01265   3.17017
   A30        3.22454   0.00229   0.00000   0.01676   0.01676   3.24130
   A31        3.19066  -0.00111   0.00000  -0.01142  -0.01142   3.17924
   A32        2.96209   0.01423   0.00000   0.10404   0.10404   3.06613
    D1       -2.88364  -0.00173   0.00000  -0.00986  -0.01006  -2.89370
    D2        0.59031  -0.01236   0.00000  -0.10090  -0.10015   0.49015
    D3        0.32138  -0.00478   0.00000  -0.04088  -0.04122   0.28017
    D4       -2.48785  -0.01540   0.00000  -0.13193  -0.13131  -2.61916
    D5       -3.11020  -0.00088   0.00000   0.00796   0.00818  -3.10202
    D6       -0.06619  -0.00044   0.00000   0.00379   0.00412  -0.06207
    D7       -0.03275   0.00237   0.00000   0.03982   0.03994   0.00719
    D8        3.01127   0.00281   0.00000   0.03565   0.03587   3.04714
    D9       -0.34544  -0.00052   0.00000  -0.00389  -0.00475  -0.35019
   D10        2.98512  -0.00624   0.00000  -0.05911  -0.05909   2.92603
   D11        2.47886   0.00641   0.00000   0.07388   0.07426   2.55312
   D12       -0.47376   0.00069   0.00000   0.01866   0.01991  -0.45384
   D13        0.07986   0.00432   0.00000   0.03519   0.03490   0.11476
   D14        3.03734   0.00776   0.00000   0.08093   0.08228   3.11961
   D15        0.20712  -0.00247   0.00000  -0.02234  -0.02149   0.18563
   D16       -2.88232  -0.00450   0.00000  -0.03937  -0.03915  -2.92147
   D17       -0.22702  -0.00270   0.00000  -0.01957  -0.01939  -0.24641
   D18        3.00430  -0.00217   0.00000  -0.01299  -0.01274   2.99156
   D19        2.86154   0.00023   0.00000  -0.00016  -0.00014   2.86140
   D20       -0.19032   0.00076   0.00000   0.00642   0.00651  -0.18381
   D21       -3.10033   0.00294   0.00000   0.02287   0.02251  -3.07782
   D22        0.09233  -0.00068   0.00000  -0.00790  -0.00789   0.08444
   D23        0.09331  -0.00010   0.00000   0.00323   0.00324   0.09655
   D24       -2.99721  -0.00372   0.00000  -0.02754  -0.02717  -3.02438
   D25       -2.89875   0.00048   0.00000   0.00157   0.00144  -2.89731
   D26        0.18239   0.00084   0.00000   0.00753   0.00746   0.18985
   D27        0.14493   0.00044   0.00000  -0.00414  -0.00434   0.14059
   D28       -3.05711   0.00080   0.00000   0.00182   0.00168  -3.05544
   D29       -0.00181  -0.00005   0.00000  -0.00201  -0.00203  -0.00385
   D30        3.09455   0.00062   0.00000   0.00829   0.00835   3.10289
   D31       -3.08499  -0.00017   0.00000  -0.00690  -0.00705  -3.09203
   D32        0.01138   0.00050   0.00000   0.00340   0.00333   0.01470
   D33       -0.10100   0.00090   0.00000   0.01313   0.01327  -0.08772
   D34        3.04839   0.00122   0.00000   0.01731   0.01746   3.06585
   D35        3.08568   0.00032   0.00000   0.00318   0.00317   3.08886
   D36       -0.04812   0.00063   0.00000   0.00736   0.00736  -0.04076
   D37        0.05530  -0.00240   0.00000  -0.01689  -0.01688   0.03842
   D38       -3.13689   0.00095   0.00000   0.01267   0.01288  -3.12401
   D39       -3.09406  -0.00272   0.00000  -0.02109  -0.02111  -3.11517
   D40       -0.00306   0.00062   0.00000   0.00846   0.00864   0.00558
         Item               Value     Threshold  Converged?
 Maximum Force            0.126666     0.000450     NO 
 RMS     Force            0.022925     0.000300     NO 
 Maximum Displacement     0.425141     0.001800     NO 
 RMS     Displacement     0.094277     0.001200     NO 
 Predicted change in Energy=-3.917969D-02
 GradGradGradGradGradGradGradGradGradGradGradGradGradGradGradGradGradGrad

                          Input orientation:                          
 ---------------------------------------------------------------------
 Center     Atomic      Atomic             Coordinates (Angstroms)
 Number     Number       Type             X           Y           Z
 ---------------------------------------------------------------------
      1          7           0        2.416563    3.664304    0.125589
      2          6           0        3.430912    3.090040   -0.139158
      3          6           0        4.632401    2.361658   -0.510702
      4          6           0        5.745167    3.056250   -1.088786
      5          6           0        6.795912    2.309387   -1.731295
      6          6           0        6.987055    0.943894   -1.458185
      7          6           0        5.997068    0.304509   -0.625010
      8          6           0        4.733070    0.948268   -0.266445
      9          6           0        3.726908    0.177793    0.407681
     10          6           0        4.009602   -1.108671    0.864416
     11          6           0        5.296003   -1.681901    0.667104
     12          6           0        6.256767   -0.995287   -0.082018
     13          7           0        6.305678    5.580805   -0.481143
     14          6           0        5.978751    4.467078   -0.774284
     15          1           0        7.528162    2.855893   -2.343275
     16          1           0        2.738508    0.608214    0.618086
     17          1           0        3.240356   -1.668820    1.409517
     18          1           0        5.528723   -2.665161    1.092530
     19          1           0        7.242607   -1.448554   -0.245854
 ---------------------------------------------------------------------
                    Distance matrix (angstroms):
                    1          2          3          4          5
     1  N    0.000000
     2  C    1.195313   0.000000
     3  C    2.647959   1.453327   0.000000
     4  C    3.595002   2.501741   1.433488   0.000000
     5  C    4.945959   3.803622   2.484625   1.440377   0.000000
     6  C    5.549628   4.357973   2.907263   2.478061   1.405595
     7  C    4.967056   3.818428   2.471284   2.801896   2.425192
     8  C    3.591204   2.509782   1.437869   2.478744   2.872934
     9  C    3.735283   2.977891   2.536259   3.820772   4.305543
    10  C    5.085757   4.355596   3.784443   4.916680   5.117065
    11  C    6.096419   5.186525   4.263562   5.072965   4.892078
    12  C    6.041693   4.967758   3.753853   4.205980   3.732514
    13  N    4.377935   3.819050   3.628173   2.656460   3.536295
    14  C    3.760771   2.964979   2.512952   1.464210   2.497850
    15  H    5.733869   4.658370   3.462373   2.189282   1.099717
    16  H    3.112216   2.685573   2.817012   4.236306   4.987596
    17  H    5.547010   5.008139   4.676514   5.902701   6.191350
    18  H    7.119174   6.248216   5.351883   6.126951   5.858830
    19  H    7.040596   5.927836   4.626125   4.821423   4.065488
                    6          7          8          9         10
     6  C    0.000000
     7  C    1.443284   0.000000
     8  C    2.549649   1.463108   0.000000
     9  C    3.833657   2.497225   1.435423   0.000000
    10  C    4.297990   2.857531   2.456267   1.394098   0.000000
    11  C    3.777739   2.471209   2.847138   2.447002   1.422094
    12  C    2.487484   1.432393   2.476503   2.831273   2.440971
    13  N    4.787465   5.287271   4.896896   6.052487   7.199415
    14  C    3.727898   4.165286   3.767181   4.986563   6.136111
    15  H    2.175298   3.436022   3.970491   5.402732   6.195749
    16  H    4.740647   3.500820   2.208237   1.098394   2.150361
    17  H    5.393306   3.953832   3.447636   2.156476   1.096651
    18  H    4.653832   3.462402   3.941668   3.434813   2.186876
    19  H    2.694227   2.183656   3.470296   3.928390   3.435191
                   11         12         13         14         15
    11  C    0.000000
    12  C    1.398460   0.000000
    13  N    7.421914   6.588374   0.000000
    14  C    6.352455   5.513071   1.197163   0.000000
    15  H    5.885277   4.643416   3.519538   2.730994   0.000000
    16  H    3.433338   3.929314   6.217690   5.227686   6.063209
    17  H    2.185642   3.431772   8.094928   7.065199   7.276109
    18  H    1.096333   2.167508   8.430661   7.386227   6.803275
    19  H    2.162686   1.097349   7.095427   6.072172   4.796768
                   16         17         18         19
    16  H    0.000000
    17  H    2.462337   0.000000
    18  H    4.327284   2.515909   0.000000
    19  H    5.026291   4.336679   2.491747   0.000000
 Stoichiometry    C12H5N2(1-)
 Framework group  C1[X(C12H5N2)]
 Deg. of freedom    51
 Full point group                 C1      NOp   1
 Largest Abelian subgroup         C1      NOp   1
 Largest concise Abelian subgroup C1      NOp   1
                         Standard orientation:                         
 ---------------------------------------------------------------------
 Center     Atomic      Atomic             Coordinates (Angstroms)
 Number     Number       Type             X           Y           Z
 ---------------------------------------------------------------------
      1          7           0        1.774211    2.955944   -0.265290
      2          6           0        1.321697    1.850406   -0.222970
      3          6           0        0.749738    0.514400   -0.233534
      4          6           0        1.606262   -0.635042   -0.239733
      5          6           0        1.059941   -1.929463   -0.557054
      6          6           0       -0.319209   -2.180258   -0.453408
      7          6           0       -1.163946   -1.047515   -0.159501
      8          6           0       -0.675968    0.331298   -0.197435
      9          6           0       -1.619237    1.406432   -0.075909
     10          6           0       -2.951240    1.145576    0.242263
     11          6           0       -3.400064   -0.188170    0.447273
     12          6           0       -2.527034   -1.258203    0.226962
     13          7           0        3.993539   -0.624991    0.925423
     14          6           0        2.940621   -0.564456    0.358942
     15          1           0        1.755990   -2.756617   -0.758826
     16          1           0       -1.295579    2.450762   -0.181211
     17          1           0       -3.649844    1.981667    0.366955
     18          1           0       -4.431945   -0.375979    0.766483
     19          1           0       -2.882229   -2.286534    0.370299
 ---------------------------------------------------------------------
 Rotational constants (GHZ):      1.2402677      0.5664468      0.4067784
 Standard basis: STO-3G (5D, 7F)
 There are    75 symmetry adapted cartesian basis functions of A   symmetry.
 There are    75 symmetry adapted basis functions of A   symmetry.
    75 basis functions,   225 primitive gaussians,    75 cartesian basis functions
    46 alpha electrons       46 beta electrons
       nuclear repulsion energy       705.4084065408 Hartrees.
 NAtoms=   19 NActive=   19 NUniq=   19 SFac= 1.00D+00 NAtFMM=   60 NAOKFM=F Big=F
 Integral buffers will be    131072 words long.
 Raffenetti 2 integral format.
 Two-electron integral symmetry is turned on.
 One-electron integrals computed using PRISM.
 NBasis=    75 RedAO= T EigKep=  1.73D-01  NBF=    75
 NBsUse=    75 1.00D-06 EigRej= -1.00D+00 NBFU=    75
 Initial guess from the checkpoint file:  "/tmp/bnp.472680.sequoia/Gau-13670.chk"
 B after Tr=     0.000000    0.000000    0.000000
         Rot=    0.999961    0.007265   -0.003582   -0.003596 Ang=   1.02 deg.
 ExpMin= 1.69D-01 ExpMax= 9.91D+01 ExpMxC= 9.91D+01 IAcc=1 IRadAn=         1 AccDes= 0.00D+00
 Harris functional with IExCor=  402 and IRadAn=       1 diagonalized for initial guess.
 HarFok:  IExCor=  402 AccDes= 0.00D+00 IRadAn=         1 IDoV= 1 UseB2=F ITyADJ=14
 ICtDFT=  3500011 ScaDFX=  1.000000  1.000000  1.000000  1.000000
 FoFCou: FMM=F IPFlag=           0 FMFlag=      100000 FMFlg1=           0
         NFxFlg=           0 DoJE=T BraDBF=F KetDBF=T FulRan=T
         wScrn=  0.000000 ICntrl=     500 IOpCl=  0 I1Cent=   200000004 NGrid=           0
         NMat0=    1 NMatS0=      1 NMatT0=    0 NMatD0=    1 NMtDS0=    0 NMtDT0=    0
 Petite list used in FoFCou.
 Keep R1 ints in memory in canonical form, NReq=4993994.
 Requested convergence on RMS density matrix=1.00D-08 within 128 cycles.
 Requested convergence on MAX density matrix=1.00D-06.
 Requested convergence on             energy=1.00D-06.
 No special actions if energy rises.
 Integral accuracy reduced to 1.0D-05 until final iterations.
 Initial convergence to 1.0D-05 achieved.  Increase integral accuracy.
 SCF Done:  E(RB3LYP) =  -562.503673011     A.U. after   18 cycles
            NFock= 18  Conv=0.77D-08     -V/T= 2.0140
 Calling FoFJK, ICntrl=      2127 FMM=F ISym2X=0 I1Cent= 0 IOpClX= 0 NMat=1 NMatS=1 NMatT=0.
 ***** Axes restored to original set *****
 -------------------------------------------------------------------
 Center     Atomic                   Forces (Hartrees/Bohr)
 Number     Number              X              Y              Z
 -------------------------------------------------------------------
      1        7          -0.011913442    0.006955614    0.003091287
      2        6           0.013658853   -0.006495132    0.001280379
      3        6          -0.003980974    0.005315313    0.002751040
      4        6           0.009147470    0.007136030    0.002814040
      5        6          -0.005314870   -0.011100382    0.009211793
      6        6           0.022416493   -0.005453079   -0.010191729
      7        6          -0.005115064    0.012638083   -0.000083345
      8        6          -0.001176097   -0.007322851   -0.006131274
      9        6          -0.004392495   -0.008308768    0.004469004
     10        6          -0.004918324    0.008541641   -0.000631588
     11        6           0.010857728   -0.000233314   -0.005683081
     12        6          -0.009154103   -0.008526514    0.011361647
     13        7           0.002020201    0.011379015    0.000615940
     14        6          -0.009666320   -0.008742099   -0.006525510
     15        1          -0.002118485    0.004328378   -0.002388490
     16        1           0.000106084    0.002649732   -0.001392498
     17        1          -0.000685320   -0.001112307    0.000745147
     18        1          -0.001092554   -0.001589126   -0.000309382
     19        1           0.001321221   -0.000060235   -0.003003382
 -------------------------------------------------------------------
 Cartesian Forces:  Max     0.022416493 RMS     0.007031479

 GradGradGradGradGradGradGradGradGradGradGradGradGradGradGradGradGradGrad
 Berny optimization.
 Using GEDIIS/GDIIS optimizer.
 FormGI is forming the generalized inverse of G from B-inverse, IUseBI=4.
 Internal  Forces:  Max     0.014428469 RMS     0.004343516
 Search for a local minimum.
 Step number   2 out of a maximum of  102
 All quantities printed in internal units (Hartrees-Bohrs-Radians)
 Mixed Optimization -- RFO/linear search
 Update second derivatives using D2CorX and points    1    2
 DE= -3.60D-02 DEPred=-3.92D-02 R= 9.20D-01
 TightC=F SS=  1.41D+00  RLast= 3.80D-01 DXNew= 5.0454D-01 1.1404D+00
 Trust test= 9.20D-01 RLast= 3.80D-01 DXMaxT set to 5.05D-01
 ITU=  1  0
 Use linear search instead of GDIIS.
     Eigenvalues ---    0.01464   0.01465   0.01939   0.01948   0.01998
     Eigenvalues ---    0.02024   0.02044   0.02116   0.02152   0.02155
     Eigenvalues ---    0.02193   0.02198   0.02208   0.02223   0.02289
     Eigenvalues ---    0.02557   0.04866   0.04961   0.15774   0.15961
     Eigenvalues ---    0.15989   0.15999   0.16009   0.21690   0.21995
     Eigenvalues ---    0.22551   0.24148   0.24283   0.24681   0.24912
     Eigenvalues ---    0.24999   0.34813   0.34865   0.35157   0.35182
     Eigenvalues ---    0.35238   0.38236   0.38627   0.40097   0.41169
     Eigenvalues ---    0.41476   0.43753   0.44023   0.45635   0.45980
     Eigenvalues ---    0.46180   0.46727   0.47878   0.51355   1.29088
     Eigenvalues ---    1.34411
 RFO step:  Lambda=-1.41695754D-02 EMin= 1.46360631D-02
 Quartic linear search produced a step of  0.33632.
 Iteration  1 RMS(Cart)=  0.15034048 RMS(Int)=  0.01781534
 Iteration  2 RMS(Cart)=  0.03686601 RMS(Int)=  0.00159414
 Iteration  3 RMS(Cart)=  0.00121955 RMS(Int)=  0.00141767
 Iteration  4 RMS(Cart)=  0.00000281 RMS(Int)=  0.00141767
 Iteration  5 RMS(Cart)=  0.00000001 RMS(Int)=  0.00141767
 Variable       Old X    -DE/DX   Delta X   Delta X   Delta X     New X
                                 (Linear)    (Quad)   (Total)
    R1        2.25881   0.01411   0.02650  -0.01450   0.01200   2.27082
    R2        2.74639  -0.00012   0.00386  -0.00457  -0.00071   2.74568
    R3        2.70890   0.00148   0.02163  -0.02040   0.00139   2.71029
    R4        2.71718   0.00301   0.01192  -0.00344   0.00767   2.72485
    R5        2.72192   0.00558   0.02976  -0.01824   0.01268   2.73460
    R6        2.76696   0.00008   0.01639  -0.01754  -0.00115   2.76581
    R7        2.65619   0.00474   0.01454  -0.00404   0.01114   2.66733
    R8        2.07816   0.00207   0.00809  -0.00146   0.00663   2.08479
    R9        2.72741   0.01251   0.03235  -0.00069   0.03128   2.75869
   R10        2.76487   0.00312   0.02835  -0.01870   0.00890   2.77378
   R11        2.70683   0.00796   0.02443  -0.00443   0.02018   2.72701
   R12        2.71256   0.00408   0.01591  -0.00501   0.01076   2.72332
   R13        2.63446  -0.00497  -0.00282  -0.01109  -0.01407   2.62039
   R14        2.07566   0.00067   0.00553  -0.00360   0.00192   2.07759
   R15        2.68737   0.00642   0.01929  -0.00463   0.01463   2.70200
   R16        2.07237   0.00142   0.00639  -0.00193   0.00446   2.07683
   R17        2.64271  -0.00548   0.00518  -0.02070  -0.01536   2.62734
   R18        2.07177   0.00107   0.00589  -0.00261   0.00329   2.07506
   R19        2.07369   0.00166   0.00469   0.00084   0.00553   2.07922
   R20        2.26231   0.01129   0.02378  -0.01400   0.00978   2.27209
    A1        2.09671   0.00074   0.00184   0.00304   0.00448   2.10118
    A2        2.10262   0.00015  -0.00252   0.00453   0.00174   2.10435
    A3        2.08341  -0.00083   0.00113  -0.00585  -0.00643   2.07698
    A4        2.08854  -0.00216  -0.00541   0.00217  -0.00758   2.08096
    A5        2.09913  -0.00270  -0.00294   0.00285  -0.00625   2.09288
    A6        2.07037   0.00598   0.01521   0.02843   0.03779   2.10816
    A7        2.11327   0.01094   0.01733   0.04152   0.05846   2.17173
    A8        2.06723  -0.01001  -0.01938  -0.03726  -0.05973   2.00749
    A9        2.09480  -0.00053   0.00457   0.00746   0.00902   2.10382
   A10        2.03673  -0.01443  -0.02203  -0.04585  -0.06757   1.96916
   A11        2.14020   0.00665   0.01151   0.02376   0.03362   2.17383
   A12        2.09032  -0.00022   0.00571  -0.01138  -0.00549   2.08483
   A13        2.05217  -0.00638  -0.01699  -0.01087  -0.02790   2.02427
   A14        2.03908   0.00060  -0.00132   0.00593   0.00278   2.04186
   A15        2.16316  -0.00387  -0.00789  -0.01441  -0.02093   2.14223
   A16        2.07657   0.00328   0.00905   0.00797   0.01743   2.09400
   A17        2.10254  -0.00026  -0.00239   0.00341   0.00046   2.10300
   A18        2.10643  -0.00288  -0.00325  -0.01875  -0.02185   2.08457
   A19        2.07296   0.00317   0.00573   0.01633   0.02225   2.09522
   A20        2.10591  -0.00012   0.00342  -0.00539  -0.00250   2.10341
   A21        2.08513   0.00061  -0.00368   0.00936   0.00575   2.09088
   A22        2.09162  -0.00046   0.00039  -0.00319  -0.00274   2.08888
   A23        2.09195   0.00019   0.00056  -0.00101  -0.00054   2.09141
   A24        2.09404  -0.00109  -0.00188  -0.00515  -0.00700   2.08704
   A25        2.09714   0.00090   0.00131   0.00611   0.00745   2.10459
   A26        2.12238   0.00349   0.00691   0.01334   0.01985   2.14222
   A27        2.07271  -0.00369  -0.00862  -0.01490  -0.02412   2.04859
   A28        2.08792   0.00024   0.00202   0.00243   0.00384   2.09176
   A29        3.17017  -0.00035   0.00425  -0.02214  -0.01789   3.15227
   A30        3.24130  -0.00076   0.00564  -0.02276  -0.01713   3.22417
   A31        3.17924  -0.00007  -0.00384   0.00231  -0.00153   3.17771
   A32        3.06613   0.00525   0.03499   0.06469   0.09968   3.16581
    D1       -2.89370  -0.00237  -0.00338  -0.06607  -0.06929  -2.96299
    D2        0.49015  -0.00853  -0.03368  -0.22852  -0.25972   0.23044
    D3        0.28017  -0.00445  -0.01386  -0.12701  -0.14065   0.13951
    D4       -2.61916  -0.01061  -0.04416  -0.28945  -0.33108  -2.95024
    D5       -3.10202   0.00016   0.00275   0.04262   0.04676  -3.05526
    D6       -0.06207   0.00046   0.00138   0.03722   0.03987  -0.02220
    D7        0.00719   0.00226   0.01343   0.10374   0.11830   0.12550
    D8        3.04714   0.00256   0.01206   0.09834   0.11142  -3.12463
    D9       -0.35019   0.00074  -0.00160   0.04348   0.04061  -0.30958
   D10        2.92603  -0.00254  -0.01987  -0.05640  -0.07595   2.85008
   D11        2.55312   0.00562   0.02497   0.19979   0.22659   2.77971
   D12       -0.45384   0.00234   0.00670   0.09991   0.11003  -0.34381
   D13        0.11476   0.00200   0.01174   0.04559   0.05724   0.17200
   D14        3.11961   0.00462   0.02767   0.14369   0.17497  -2.98861
   D15        0.18563  -0.00175  -0.00723  -0.05846  -0.06388   0.12175
   D16       -2.92147  -0.00357  -0.01317  -0.11140  -0.12365  -3.04512
   D17       -0.24641  -0.00084  -0.00652  -0.01738  -0.02377  -0.27018
   D18        2.99156  -0.00070  -0.00428  -0.01090  -0.01477   2.97679
   D19        2.86140   0.00105  -0.00005   0.03444   0.03450   2.89590
   D20       -0.18381   0.00120   0.00219   0.04092   0.04350  -0.14032
   D21       -3.07782   0.00160   0.00757   0.03939   0.04545  -3.03237
   D22        0.08444  -0.00025  -0.00265  -0.00976  -0.01305   0.07139
   D23        0.09655  -0.00038   0.00109  -0.01160  -0.01049   0.08606
   D24       -3.02438  -0.00224  -0.00914  -0.06074  -0.06898  -3.09336
   D25       -2.89731  -0.00071   0.00048  -0.02680  -0.02672  -2.92403
   D26        0.18985  -0.00005   0.00251  -0.00463  -0.00250   0.18735
   D27        0.14059  -0.00056  -0.00146  -0.03245  -0.03469   0.10590
   D28       -3.05544   0.00010   0.00056  -0.01028  -0.01047  -3.06591
   D29       -0.00385  -0.00008  -0.00068  -0.00409  -0.00488  -0.00872
   D30        3.10289   0.00064   0.00281   0.02184   0.02491   3.12780
   D31       -3.09203  -0.00054  -0.00237  -0.02477  -0.02788  -3.11991
   D32        0.01470   0.00018   0.00112   0.00117   0.00191   0.01661
   D33       -0.08772   0.00106   0.00446   0.03457   0.03925  -0.04847
   D34        3.06585   0.00123   0.00587   0.03996   0.04598   3.11183
   D35        3.08886   0.00032   0.00107   0.00828   0.00933   3.09818
   D36       -0.04076   0.00048   0.00248   0.01368   0.01606  -0.02470
   D37        0.03842  -0.00106  -0.00568  -0.02602  -0.03178   0.00664
   D38       -3.12401   0.00077   0.00433   0.02335   0.02779  -3.09622
   D39       -3.11517  -0.00124  -0.00710  -0.03150  -0.03868   3.12933
   D40        0.00558   0.00059   0.00291   0.01786   0.02089   0.02647
         Item               Value     Threshold  Converged?
 Maximum Force            0.014428     0.000450     NO 
 RMS     Force            0.004344     0.000300     NO 
 Maximum Displacement     1.004869     0.001800     NO 
 RMS     Displacement     0.179580     0.001200     NO 
 Predicted change in Energy=-9.302375D-03
 GradGradGradGradGradGradGradGradGradGradGradGradGradGradGradGradGradGrad

                          Input orientation:                          
 ---------------------------------------------------------------------
 Center     Atomic      Atomic             Coordinates (Angstroms)
 Number     Number       Type             X           Y           Z
 ---------------------------------------------------------------------
      1          7           0        2.522508    3.697934    0.338344
      2          6           0        3.527164    3.110221    0.039582
      3          6           0        4.717956    2.383031   -0.365724
      4          6           0        5.809416    3.070279   -0.992942
      5          6           0        6.881600    2.300619   -1.586330
      6          6           0        7.140057    0.942121   -1.303519
      7          6           0        6.079358    0.314881   -0.520825
      8          6           0        4.800669    0.954425   -0.188514
      9          6           0        3.743454    0.181073    0.412356
     10          6           0        3.963603   -1.133220    0.795720
     11          6           0        5.239597   -1.745154    0.591256
     12          6           0        6.251215   -1.037857   -0.048569
     13          7           0        5.985216    5.727907   -1.012896
     14          6           0        5.861029    4.532784   -0.969622
     15          1           0        7.524069    2.859248   -2.287948
     16          1           0        2.765575    0.650401    0.591769
     17          1           0        3.153062   -1.708386    1.264795
     18          1           0        5.405483   -2.777655    0.926202
     19          1           0        7.219180   -1.522952   -0.244364
 ---------------------------------------------------------------------
                    Distance matrix (angstroms):
                    1          2          3          4          5
     1  N    0.000000
     2  C    1.201665   0.000000
     3  C    2.654181   1.452951   0.000000
     4  C    3.601394   2.505270   1.434224   0.000000
     5  C    4.965736   3.814615   2.485563   1.447088   0.000000
     6  C    5.622453   4.422394   2.970227   2.529055   1.411489
     7  C    4.983413   3.826444   2.480870   2.808555   2.392080
     8  C    3.604781   2.514220   1.441929   2.478208   2.845417
     9  C    3.723506   2.960683   2.530549   3.819761   4.281960
    10  C    5.062212   4.332322   3.779156   4.927042   5.097069
    11  C    6.088822   5.177976   4.269641   5.101253   4.879174
    12  C    6.039923   4.963343   3.762172   4.238373   3.729279
    13  N    4.235209   3.741927   3.634967   2.663511   3.588681
    14  C    3.681504   2.913607   2.508535   1.463601   2.530702
    15  H    5.711078   4.632023   3.434530   2.159076   1.103223
    16  H    3.067696   2.633560   2.780394   4.199058   4.940546
    17  H    5.521250   4.985986   4.674096   5.915169   6.172765
    18  H    7.112691   6.243497   5.364181   6.168031   5.854964
    19  H    7.046696   5.931096   4.639779   4.862672   4.066267
                    6          7          8          9         10
     6  C    0.000000
     7  C    1.459835   0.000000
     8  C    2.591548   1.467819   0.000000
     9  C    3.880764   2.518964   1.441118   0.000000
    10  C    4.336323   2.882136   2.455129   1.386651   0.000000
    11  C    3.797811   2.487101   2.844016   2.445568   1.429836
    12  C    2.507040   1.443074   2.468370   2.826147   2.440304
    13  N    4.931721   5.436161   4.986872   6.150139   7.377878
    14  C    3.826259   4.247327   3.813023   5.033028   6.230590
    15  H    2.189051   3.418145   3.931015   5.362585   6.174603
    16  H    4.776328   3.511638   2.200655   1.099411   2.158280
    17  H    5.433005   3.980610   3.452141   2.155289   1.099010
    18  H    4.670882   3.480198   3.941676   3.432266   2.190938
    19  H    2.684149   2.180196   3.462616   3.926278   3.439833
                   11         12         13         14         15
    11  C    0.000000
    12  C    1.390330   0.000000
    13  N    7.679577   6.839317   0.000000
    14  C    6.498848   5.659737   1.202338   0.000000
    15  H    5.891448   4.671446   3.496145   2.702666   0.000000
    16  H    3.443759   3.925549   6.222709   5.205062   5.984567
    17  H    2.192860   3.431193   8.276922   7.160859   7.251963
    18  H    1.098073   2.166181   8.743042   7.565989   6.825969
    19  H    2.160182   1.100277   7.395152   6.248401   4.844881
                   16         17         18         19
    16  H    0.000000
    17  H    2.483341   0.000000
    18  H    4.339646   2.516224   0.000000
    19  H    5.025653   4.341114   2.496799   0.000000
 Stoichiometry    C12H5N2(1-)
 Framework group  C1[X(C12H5N2)]
 Deg. of freedom    51
 Full point group                 C1      NOp   1
 Largest Abelian subgroup         C1      NOp   1
 Largest concise Abelian subgroup C1      NOp   1
                         Standard orientation:                         
 ---------------------------------------------------------------------
 Center     Atomic      Atomic             Coordinates (Angstroms)
 Number     Number       Type             X           Y           Z
 ---------------------------------------------------------------------
      1          7           0        1.796180    2.918370   -0.088237
      2          6           0        1.323824    1.813760   -0.061461
      3          6           0        0.744631    0.481390   -0.081192
      4          6           0        1.590032   -0.677115   -0.093914
      5          6           0        1.003418   -1.977331   -0.337604
      6          6           0       -0.372672   -2.267333   -0.216870
      7          6           0       -1.190303   -1.070756   -0.041362
      8          6           0       -0.685244    0.304073   -0.137551
      9          6           0       -1.607994    1.410960   -0.149997
     10          6           0       -2.963192    1.199597    0.053875
     11          6           0       -3.467792   -0.120825    0.269036
     12          6           0       -2.603400   -1.208535    0.216779
     13          7           0        4.199284   -0.531694    0.420820
     14          6           0        3.017010   -0.542641    0.202363
     15          1           0        1.720386   -2.767593   -0.617858
     16          1           0       -1.225627    2.431579   -0.294348
     17          1           0       -3.655032    2.053517    0.054998
     18          1           0       -4.539692   -0.267535    0.456839
     19          1           0       -2.998194   -2.228163    0.339686
 ---------------------------------------------------------------------
 Rotational constants (GHZ):      1.3033250      0.5535019      0.3933536
 Standard basis: STO-3G (5D, 7F)
 There are    75 symmetry adapted cartesian basis functions of A   symmetry.
 There are    75 symmetry adapted basis functions of A   symmetry.
    75 basis functions,   225 primitive gaussians,    75 cartesian basis functions
    46 alpha electrons       46 beta electrons
       nuclear repulsion energy       703.2131691376 Hartrees.
 NAtoms=   19 NActive=   19 NUniq=   19 SFac= 1.00D+00 NAtFMM=   60 NAOKFM=F Big=F
 Integral buffers will be    131072 words long.
 Raffenetti 2 integral format.
 Two-electron integral symmetry is turned on.
 One-electron integrals computed using PRISM.
 NBasis=    75 RedAO= T EigKep=  1.75D-01  NBF=    75
 NBsUse=    75 1.00D-06 EigRej= -1.00D+00 NBFU=    75
 Initial guess from the checkpoint file:  "/tmp/bnp.472680.sequoia/Gau-13670.chk"
 B after Tr=     0.000000    0.000000    0.000000
         Rot=    0.999972    0.006440   -0.002130    0.003240 Ang=   0.86 deg.
 ExpMin= 1.69D-01 ExpMax= 9.91D+01 ExpMxC= 9.91D+01 IAcc=1 IRadAn=         1 AccDes= 0.00D+00
 Harris functional with IExCor=  402 and IRadAn=       1 diagonalized for initial guess.
 HarFok:  IExCor=  402 AccDes= 0.00D+00 IRadAn=         1 IDoV= 1 UseB2=F ITyADJ=14
 ICtDFT=  3500011 ScaDFX=  1.000000  1.000000  1.000000  1.000000
 FoFCou: FMM=F IPFlag=           0 FMFlag=      100000 FMFlg1=           0
         NFxFlg=           0 DoJE=T BraDBF=F KetDBF=T FulRan=T
         wScrn=  0.000000 ICntrl=     500 IOpCl=  0 I1Cent=   200000004 NGrid=           0
         NMat0=    1 NMatS0=      1 NMatT0=    0 NMatD0=    1 NMtDS0=    0 NMtDT0=    0
 Petite list used in FoFCou.
 Keep R1 ints in memory in canonical form, NReq=4993994.
 Requested convergence on RMS density matrix=1.00D-08 within 128 cycles.
 Requested convergence on MAX density matrix=1.00D-06.
 Requested convergence on             energy=1.00D-06.
 No special actions if energy rises.
 Integral accuracy reduced to 1.0D-05 until final iterations.
 Initial convergence to 1.0D-05 achieved.  Increase integral accuracy.
 SCF Done:  E(RB3LYP) =  -562.513568630     A.U. after   19 cycles
            NFock= 19  Conv=0.75D-08     -V/T= 2.0141
 Calling FoFJK, ICntrl=      2127 FMM=F ISym2X=0 I1Cent= 0 IOpClX= 0 NMat=1 NMatS=1 NMatT=0.
 ***** Axes restored to original set *****
 -------------------------------------------------------------------
 Center     Atomic                   Forces (Hartrees/Bohr)
 Number     Number              X              Y              Z
 -------------------------------------------------------------------
      1        7           0.000792535   -0.000552127    0.000380151
      2        6           0.000034460    0.001238838    0.002192222
      3        6          -0.000387800    0.003973513   -0.003277934
      4        6           0.000447021   -0.002909817    0.001245873
      5        6          -0.005429746    0.002735716    0.001812067
      6        6           0.006679581   -0.001518018   -0.003962435
      7        6          -0.007016154    0.003551374    0.004389430
      8        6           0.004823040   -0.002595031   -0.000169029
      9        6          -0.000042765   -0.000779155    0.000597605
     10        6          -0.002796163    0.000038429    0.000016514
     11        6           0.002338834   -0.000362609   -0.000665371
     12        6          -0.001155996   -0.003296690   -0.000503263
     13        7          -0.000449926   -0.001197533    0.000611794
     14        6          -0.001271281   -0.000534165   -0.004944606
     15        1           0.002641145    0.001069536    0.002547104
     16        1           0.000675739    0.000696984    0.000032238
     17        1           0.000626809   -0.000158790   -0.000018528
     18        1          -0.000418250    0.000207589   -0.000175427
     19        1          -0.000091083    0.000391954   -0.000108403
 -------------------------------------------------------------------
 Cartesian Forces:  Max     0.007016154 RMS     0.002407467

 GradGradGradGradGradGradGradGradGradGradGradGradGradGradGradGradGradGrad
 Berny optimization.
 Using GEDIIS/GDIIS optimizer.
 FormGI is forming the generalized inverse of G from B-inverse, IUseBI=4.
 Internal  Forces:  Max     0.005020308 RMS     0.001386443
 Search for a local minimum.
 Step number   3 out of a maximum of  102
 All quantities printed in internal units (Hartrees-Bohrs-Radians)
 Mixed Optimization -- RFO/linear search
 Update second derivatives using D2CorX and points    2    3
 DE= -9.90D-03 DEPred=-9.30D-03 R= 1.06D+00
 TightC=F SS=  1.41D+00  RLast= 6.40D-01 DXNew= 8.4853D-01 1.9200D+00
 Trust test= 1.06D+00 RLast= 6.40D-01 DXMaxT set to 8.49D-01
 ITU=  1  1  0
 Use linear search instead of GDIIS.
     Eigenvalues ---    0.01414   0.01465   0.01625   0.01956   0.01970
     Eigenvalues ---    0.02024   0.02031   0.02057   0.02114   0.02151
     Eigenvalues ---    0.02156   0.02194   0.02195   0.02208   0.02305
     Eigenvalues ---    0.02950   0.04855   0.05056   0.15586   0.15992
     Eigenvalues ---    0.15996   0.16002   0.16050   0.20530   0.22017
     Eigenvalues ---    0.22533   0.24129   0.24766   0.24803   0.24984
     Eigenvalues ---    0.25110   0.34815   0.34867   0.35154   0.35175
     Eigenvalues ---    0.35237   0.38216   0.38630   0.40079   0.41217
     Eigenvalues ---    0.41506   0.43181   0.43929   0.45724   0.45903
     Eigenvalues ---    0.46309   0.46722   0.47875   0.51163   1.29141
     Eigenvalues ---    1.34581
 RFO step:  Lambda=-3.31737741D-03 EMin= 1.41398127D-02
 Quartic linear search produced a step of  0.26781.
 Iteration  1 RMS(Cart)=  0.11954181 RMS(Int)=  0.00481197
 Iteration  2 RMS(Cart)=  0.00840511 RMS(Int)=  0.00052703
 Iteration  3 RMS(Cart)=  0.00003021 RMS(Int)=  0.00052670
 Iteration  4 RMS(Cart)=  0.00000001 RMS(Int)=  0.00052670
 Variable       Old X    -DE/DX   Delta X   Delta X   Delta X     New X
                                 (Linear)    (Quad)   (Total)
    R1        2.27082  -0.00084   0.00321   0.00123   0.00444   2.27526
    R2        2.74568   0.00039  -0.00019   0.00179   0.00160   2.74728
    R3        2.71029  -0.00295   0.00037  -0.00586  -0.00554   2.70475
    R4        2.72485   0.00193   0.00205   0.00623   0.00801   2.73286
    R5        2.73460  -0.00273   0.00340  -0.00475  -0.00111   2.73349
    R6        2.76581  -0.00186  -0.00031  -0.00356  -0.00387   2.76194
    R7        2.66733   0.00203   0.00298   0.00620   0.00937   2.67670
    R8        2.08479   0.00046   0.00177   0.00208   0.00386   2.08865
    R9        2.75869   0.00502   0.00838   0.01495   0.02334   2.78203
   R10        2.77378  -0.00313   0.00238  -0.00571  -0.00359   2.77019
   R11        2.72701   0.00218   0.00541   0.00729   0.01268   2.73970
   R12        2.72332   0.00068   0.00288   0.00297   0.00575   2.72907
   R13        2.62039   0.00014  -0.00377   0.00102  -0.00271   2.61768
   R14        2.07759  -0.00030   0.00051  -0.00050   0.00001   2.07760
   R15        2.70200   0.00120   0.00392   0.00407   0.00812   2.71012
   R16        2.07683  -0.00039   0.00119  -0.00092   0.00028   2.07711
   R17        2.62734  -0.00086  -0.00411  -0.00026  -0.00427   2.62307
   R18        2.07506  -0.00031   0.00088  -0.00061   0.00027   2.07532
   R19        2.07922  -0.00023   0.00148  -0.00070   0.00078   2.08000
   R20        2.27209  -0.00126   0.00262   0.00067   0.00329   2.27538
    A1        2.10118   0.00092   0.00120   0.00392   0.00534   2.10652
    A2        2.10435   0.00046   0.00046   0.00116   0.00185   2.10620
    A3        2.07698  -0.00135  -0.00172  -0.00325  -0.00652   2.07045
    A4        2.08096   0.00176  -0.00203   0.01082   0.00640   2.08736
    A5        2.09288  -0.00059  -0.00167  -0.00351  -0.00659   2.08629
    A6        2.10816  -0.00115   0.01012  -0.00734   0.00137   2.10953
    A7        2.17173   0.00197   0.01566   0.01128   0.02604   2.19777
    A8        2.00749  -0.00081  -0.01600  -0.00326  -0.01978   1.98772
    A9        2.10382  -0.00118   0.00242  -0.00893  -0.00699   2.09683
   A10        1.96916  -0.00370  -0.01809  -0.00822  -0.02710   1.94206
   A11        2.17383   0.00098   0.00900   0.00688   0.01501   2.18884
   A12        2.08483  -0.00104  -0.00147  -0.00719  -0.00820   2.07664
   A13        2.02427   0.00005  -0.00747   0.00003  -0.00778   2.01649
   A14        2.04186   0.00094   0.00074   0.00800   0.00752   2.04938
   A15        2.14223  -0.00090  -0.00561  -0.00522  -0.01002   2.13221
   A16        2.09400   0.00003   0.00467   0.00072   0.00525   2.09926
   A17        2.10300   0.00087   0.00012   0.00551   0.00514   2.10813
   A18        2.08457  -0.00128  -0.00585  -0.00752  -0.01332   2.07126
   A19        2.09522   0.00043   0.00596   0.00256   0.00858   2.10379
   A20        2.10341  -0.00090  -0.00067  -0.00382  -0.00467   2.09875
   A21        2.09088   0.00097   0.00154   0.00517   0.00673   2.09761
   A22        2.08888  -0.00008  -0.00073  -0.00135  -0.00206   2.08683
   A23        2.09141  -0.00025  -0.00014  -0.00041  -0.00062   2.09079
   A24        2.08704  -0.00021  -0.00188  -0.00183  -0.00368   2.08336
   A25        2.10459   0.00046   0.00200   0.00233   0.00436   2.10894
   A26        2.14222   0.00032   0.00531   0.00270   0.00767   2.14990
   A27        2.04859  -0.00053  -0.00646  -0.00338  -0.00986   2.03873
   A28        2.09176   0.00021   0.00103   0.00114   0.00215   2.09391
   A29        3.15227   0.00049  -0.00479   0.04091   0.03612   3.18839
   A30        3.22417  -0.00116  -0.00459  -0.02367  -0.02826   3.19591
   A31        3.17771  -0.00124  -0.00041  -0.08809  -0.08850   3.08921
   A32        3.16581  -0.00087   0.02669  -0.02550   0.00119   3.16700
    D1       -2.96299  -0.00225  -0.01856  -0.10643  -0.12471  -3.08770
    D2        0.23044  -0.00282  -0.06955  -0.10563  -0.17431   0.05613
    D3        0.13951  -0.00156  -0.03767  -0.05269  -0.09000   0.04951
    D4       -2.95024  -0.00213  -0.08866  -0.05189  -0.13960  -3.08985
    D5       -3.05526   0.00090   0.01252   0.04171   0.05492  -3.00034
    D6       -0.02220   0.00160   0.01068   0.07893   0.09007   0.06787
    D7        0.12550   0.00020   0.03168  -0.01219   0.02014   0.14564
    D8       -3.12463   0.00089   0.02984   0.02502   0.05529  -3.06934
    D9       -0.30958   0.00165   0.01088   0.07690   0.08771  -0.22187
   D10        2.85008   0.00249  -0.02034   0.13509   0.11475   2.96483
   D11        2.77971   0.00224   0.06068   0.07620   0.13775   2.91746
   D12       -0.34381   0.00309   0.02947   0.13439   0.16479  -0.17903
   D13        0.17200  -0.00060   0.01533  -0.02880  -0.01352   0.15848
   D14       -2.98861  -0.00148   0.04686  -0.08996  -0.04220  -3.03080
   D15        0.12175  -0.00100  -0.01711  -0.04293  -0.05963   0.06212
   D16       -3.04512  -0.00137  -0.03312  -0.05705  -0.08991  -3.13503
   D17       -0.27018   0.00125  -0.00637   0.06394   0.05769  -0.21249
   D18        2.97679   0.00063  -0.00396   0.02822   0.02425   3.00104
   D19        2.89590   0.00162   0.00924   0.07772   0.08707   2.98297
[...]
 ! D14   D(15,5,6,7)           179.9944         -DE/DX =    0.0                 !
 ! D15   D(5,6,7,8)              0.0111         -DE/DX =    0.0                 !
 ! D16   D(5,6,7,12)          -179.9931         -DE/DX =    0.0                 !
 ! D17   D(6,7,8,3)             -0.0078         -DE/DX =    0.0                 !
 ! D18   D(6,7,8,9)            179.9901         -DE/DX =    0.0                 !
 ! D19   D(12,7,8,3)          -180.0036         -DE/DX =    0.0                 !
 ! D20   D(12,7,8,9)            -0.0057         -DE/DX =    0.0                 !
 ! D21   D(6,7,12,11)         -179.9936         -DE/DX =    0.0                 !
 ! D22   D(6,7,12,19)            0.0074         -DE/DX =    0.0                 !
 ! D23   D(8,7,12,11)            0.0026         -DE/DX =    0.0                 !
 ! D24   D(8,7,12,19)         -179.9963         -DE/DX =    0.0                 !
 ! D25   D(3,8,9,10)           180.0021         -DE/DX =    0.0                 !
 ! D26   D(3,8,9,16)             0.0007         -DE/DX =    0.0                 !
 ! D27   D(7,8,9,10)             0.0043         -DE/DX =    0.0                 !
 ! D28   D(7,8,9,16)          -179.9972         -DE/DX =    0.0                 !
 ! D29   D(8,9,10,11)            0.0006         -DE/DX =    0.0                 !
 ! D30   D(8,9,10,17)         -179.9976         -DE/DX =    0.0                 !
 ! D31   D(16,9,10,11)        -179.9979         -DE/DX =    0.0                 !
 ! D32   D(16,9,10,17)           0.0038         -DE/DX =    0.0                 !
 ! D33   D(9,10,11,12)          -0.0038         -DE/DX =    0.0                 !
 ! D34   D(9,10,11,18)         179.9949         -DE/DX =    0.0                 !
 ! D35   D(17,10,11,12)        179.9945         -DE/DX =    0.0                 !
 ! D36   D(17,10,11,18)         -0.0068         -DE/DX =    0.0                 !
 ! D37   D(10,11,12,7)           0.0021         -DE/DX =    0.0                 !
 ! D38   D(10,11,12,19)        180.001          -DE/DX =    0.0                 !
 ! D39   D(18,11,12,7)        -179.9966         -DE/DX =    0.0                 !
 ! D40   D(18,11,12,19)          0.0023         -DE/DX =    0.0                 !
 --------------------------------------------------------------------------------
 GradGradGradGradGradGradGradGradGradGradGradGradGradGradGradGradGradGrad

                          Input orientation:                          
 ---------------------------------------------------------------------
 Center     Atomic      Atomic             Coordinates (Angstroms)
 Number     Number       Type             X           Y           Z
 ---------------------------------------------------------------------
      1          7           0        2.520830    3.695538    0.357518
      2          6           0        3.523742    3.114607    0.041374
      3          6           0        4.729166    2.397545   -0.334247
      4          6           0        5.814483    3.063763   -0.975009
      5          6           0        7.001660    2.347378   -1.342595
      6          6           0        7.271262    0.954086   -1.142290
      7          6           0        6.103009    0.322976   -0.472231
      8          6           0        4.866122    0.980136   -0.068735
      9          6           0        3.819110    0.227288    0.574765
     10          6           0        3.965058   -1.129283    0.822257
     11          6           0        5.166450   -1.802840    0.438591
     12          6           0        6.185793   -1.092186   -0.182834
     13          7           0        5.704683    5.669677   -1.527200
     14          6           0        5.712101    4.499005   -1.260329
     15          1           0        7.766652    2.976498   -1.831041
     16          1           0        2.897384    0.749002    0.868015
     17          1           0        3.159108   -1.691136    1.313480
     18          1           0        5.271456   -2.877039    0.639402
     19          1           0        7.112142   -1.605313   -0.480120
 ---------------------------------------------------------------------
                    Distance matrix (angstroms):
                    1          2          3          4          5
     1  N    0.000000
     2  C    1.201358   0.000000
     3  C    2.653313   1.452004   0.000000
     4  C    3.608728   2.506614   1.425600   0.000000
     5  C    4.978530   3.820985   2.486667   1.434475   0.000000
     6  C    5.686087   4.484732   3.032946   2.569227   1.433202
     7  C    4.989455   3.835311   2.492052   2.801419   2.379771
     8  C    3.613239   2.523901   1.448551   2.462158   2.837708
     9  C    3.709647   2.950993   2.522800   3.798540   4.277812
    10  C    5.057734   4.337642   3.789443   4.922618   5.098500
    11  C    6.102297   5.199764   4.293218   5.109015   4.874928
    12  C    6.053613   4.983361   3.784562   4.247038   3.720388
    13  N    4.193603   3.707467   3.616853   2.666038   3.571261
    14  C    3.667042   2.898259   2.497984   1.466904   2.509826
    15  H    5.729350   4.639752   3.435390   2.133394   1.104348
    16  H    3.014046   2.582972   2.741997   4.155035   4.928152
    17  H    5.507950   4.984614   4.679465   5.907390   6.174912
    18  H    7.130509   6.269925   5.391039   6.180156   5.849483
    19  H    7.062634   5.951992   4.660764   4.871253   4.047200
                    6          7          8          9         10
     6  C    0.000000
     7  C    1.487311   0.000000
     8  C    2.633989   1.457586   0.000000
     9  C    3.923503   2.514270   1.441218   0.000000
    10  C    4.373884   2.890604   2.460779   1.386664   0.000000
    11  C    3.811832   2.495162   2.844737   2.440346   1.429762
    12  C    2.507196   1.446820   2.459486   2.813567   2.437877
    13  N    4.983887   5.464324   4.982178   6.131333   7.400818
    14  C    3.874450   4.267683   3.810251   5.019816   6.250356
    15  H    2.193157   3.413979   3.937544   5.378583   6.192701
    16  H    4.818111   3.500541   2.192454   1.098981   2.161013
    17  H    5.471547   3.988981   3.458339   2.159086   1.098424
    18  H    4.674524   3.488167   3.942531   3.427876   2.189694
    19  H    2.648455   2.176398   3.449404   3.913473   3.439029
                   11         12         13         14         15
    11  C    0.000000
    12  C    1.389337   0.000000
    13  N    7.745485   6.910976   0.000000
    14  C    6.549603   5.713738   1.200729   0.000000
    15  H    5.895282   4.665822   3.405473   2.620099   0.000000
    16  H    3.441651   3.912530   6.150693   5.149271   5.996366
    17  H    2.192563   3.429070   8.290415   7.173570   7.273533
    18  H    1.097841   2.167437   8.827696   7.629493   6.825906
    19  H    2.160732   1.099909   7.483502   6.311223   4.821448
                   16         17         18         19
    16  H    0.000000
    17  H    2.494236   0.000000
    18  H    4.340121   2.514510   0.000000
    19  H    5.012429   4.341756   2.501748   0.000000
 Stoichiometry    C12H5N2(1-)
 Framework group  C1[X(C12H5N2)]
 Deg. of freedom    51
 Full point group                 C1      NOp   1
 Largest Abelian subgroup         C1      NOp   1
 Largest concise Abelian subgroup C1      NOp   1
                         Standard orientation:                         
 ---------------------------------------------------------------------
 Center     Atomic      Atomic             Coordinates (Angstroms)
 Number     Number       Type             X           Y           Z
 ---------------------------------------------------------------------
      1          7           0        1.815529    2.909349    0.000109
      2          6           0        1.343599    1.804568    0.000067
      3          6           0        0.757055    0.476306    0.000032
      4          6           0        1.574929   -0.691349    0.000086
      5          6           0        0.986820   -1.999724    0.000052
      6          6           0       -0.409359   -2.323381   -0.000081
      7          6           0       -1.201515   -1.064579    0.000021
      8          6           0       -0.680311    0.296635   -0.000004
      9          6           0       -1.582318    1.420687   -0.000108
     10          6           0       -2.956161    1.232552   -0.000098
     11          6           0       -3.498609   -0.090312    0.000031
     12          6           0       -2.643302   -1.185167    0.000065
     13          7           0        4.235181   -0.515792   -0.000129
     14          6           0        3.034912   -0.549018   -0.000036
     15          1           0        1.726990   -2.819317    0.000095
     16          1           0       -1.161072    2.435729   -0.000172
     17          1           0       -3.632360    2.098167   -0.000218
     18          1           0       -4.587814   -0.227746    0.000122
     19          1           0       -3.055168   -2.205052    0.000147
 ---------------------------------------------------------------------
 Rotational constants (GHZ):      1.3178064      0.5516523      0.3888671

 **********************************************************************

            Population analysis using the SCF density.

 **********************************************************************

 Orbital symmetries:
       Occupied  (A) (A) (A) (A) (A) (A) (A) (A) (A) (A) (A) (A)
                 (A) (A) (A) (A) (A) (A) (A) (A) (A) (A) (A) (A)
                 (A) (A) (A) (A) (A) (A) (A) (A) (A) (A) (A) (A)
                 (A) (A) (A) (A) (A) (A) (A) (A) (A) (A)
       Virtual   (A) (A) (A) (A) (A) (A) (A) (A) (A) (A) (A) (A)
                 (A) (A) (A) (A) (A) (A) (A) (A) (A) (A) (A) (A)
                 (A) (A) (A) (A) (A)
 The electronic state is 1-A.
 Alpha  occ. eigenvalues --  -13.97648 -13.96903  -9.88945  -9.88016  -9.87908
 Alpha  occ. eigenvalues --   -9.87707  -9.86986  -9.86795  -9.86325  -9.86138
 Alpha  occ. eigenvalues --   -9.85527  -9.83108  -9.80570  -9.67911  -0.71314
 Alpha  occ. eigenvalues --   -0.70570  -0.66427  -0.62414  -0.56553  -0.54744
 Alpha  occ. eigenvalues --   -0.51655  -0.44412  -0.41377  -0.40519  -0.34158
 Alpha  occ. eigenvalues --   -0.32826  -0.31196  -0.25604  -0.24123  -0.23584
 Alpha  occ. eigenvalues --   -0.21845  -0.19986  -0.19566  -0.16296  -0.15790
 Alpha  occ. eigenvalues --   -0.14436  -0.14425  -0.13364  -0.12528  -0.12105
 Alpha  occ. eigenvalues --   -0.09660  -0.09337  -0.06420  -0.03144   0.01671
 Alpha  occ. eigenvalues --    0.10379
 Alpha virt. eigenvalues --    0.17385   0.22033   0.24052   0.26802   0.27833
 Alpha virt. eigenvalues --    0.30476   0.34779   0.37166   0.43433   0.46104
 Alpha virt. eigenvalues --    0.48214   0.49456   0.52921   0.56112   0.57740
 Alpha virt. eigenvalues --    0.59487   0.60621   0.62802   0.68172   0.69608
 Alpha virt. eigenvalues --    0.71298   0.75135   0.77943   0.81114   0.84727
 Alpha virt. eigenvalues --    0.90804   0.94296   1.05695   1.10214
          Condensed to atoms (all electrons):
               1          2          3          4          5          6
     1  N    6.604238   0.656657  -0.011188  -0.000085  -0.000001   0.000000
     2  C    0.656657   4.933198   0.428556  -0.028517   0.000709  -0.000002
     3  C   -0.011188   0.428556   4.811801   0.483343  -0.030278  -0.005810
     4  C   -0.000085  -0.028517   0.483343   4.800979   0.458454  -0.017244
     5  C   -0.000001   0.000709  -0.030278   0.458454   4.947463   0.440683
     6  C    0.000000  -0.000002  -0.005810  -0.017244   0.440683   5.474754
     7  C   -0.000001   0.000699  -0.029200  -0.012441  -0.029234   0.390408
     8  C   -0.000044  -0.026959   0.459886  -0.028584  -0.010776  -0.017068
     9  C   -0.000150  -0.004585  -0.029169   0.000700   0.000050   0.000572
    10  C    0.000001   0.000019   0.000777  -0.000007   0.000001   0.000014
    11  C    0.000000   0.000000   0.000031   0.000000  -0.000015   0.000747
    12  C    0.000000  -0.000006   0.000877   0.000014   0.001354  -0.034129
    13  N   -0.000009  -0.000022   0.000001  -0.010558  -0.000209  -0.000001
    14  C   -0.000023  -0.002759  -0.030488   0.410609  -0.026004   0.000667
    15  H    0.000000  -0.000019   0.001291  -0.035950   0.382250  -0.031394
    16  H   -0.000137   0.001699  -0.003698   0.000020  -0.000002  -0.000013
    17  H    0.000000   0.000000  -0.000017   0.000000   0.000000   0.000000
    18  H    0.000000   0.000000   0.000001   0.000000   0.000000  -0.000017
    19  H    0.000000   0.000000  -0.000016   0.000001   0.000030  -0.001546
               7          8          9         10         11         12
     1  N   -0.000001  -0.000044  -0.000150   0.000001   0.000000   0.000000
     2  C    0.000699  -0.026959  -0.004585   0.000019   0.000000  -0.000006
     3  C   -0.029200   0.459886  -0.029169   0.000777   0.000031   0.000877
     4  C   -0.012441  -0.028584   0.000700  -0.000007   0.000000   0.000014
     5  C   -0.029234  -0.010776   0.000050   0.000001  -0.000015   0.001354
     6  C    0.390408  -0.017068   0.000572   0.000014   0.000747  -0.034129
     7  C    4.896687   0.447101  -0.023228  -0.008551  -0.025372   0.461274
     8  C    0.447101   4.817899   0.465816  -0.027767  -0.009144  -0.034307
     9  C   -0.023228   0.465816   4.838997   0.527695  -0.029703  -0.010527
    10  C   -0.008551  -0.027767   0.527695   4.824990   0.473507  -0.029242
    11  C   -0.025372  -0.009144  -0.029703   0.473507   4.841463   0.522265
    12  C    0.461274  -0.034307  -0.010527  -0.029242   0.522265   4.843044
    13  N    0.000000  -0.000001   0.000000   0.000000   0.000000   0.000000
    14  C    0.000041   0.000821  -0.000005   0.000000   0.000000   0.000000
    15  H    0.002176   0.000005   0.000001   0.000000   0.000000  -0.000015
    16  H    0.001105  -0.024783   0.385114  -0.025938   0.001407   0.000013
    17  H    0.000023   0.001382  -0.026035   0.386790  -0.025206   0.001344
    18  H    0.001281   0.000015   0.001349  -0.025756   0.386937  -0.025384
    19  H   -0.025854   0.001418   0.000030   0.001440  -0.026711   0.384057
              13         14         15         16         17         18
     1  N   -0.000009  -0.000023   0.000000  -0.000137   0.000000   0.000000
     2  C   -0.000022  -0.002759  -0.000019   0.001699   0.000000   0.000000
     3  C    0.000001  -0.030488   0.001291  -0.003698  -0.000017   0.000001
     4  C   -0.010558   0.410609  -0.035950   0.000020   0.000000   0.000000
     5  C   -0.000209  -0.026004   0.382250  -0.000002   0.000000   0.000000
     6  C   -0.000001   0.000667  -0.031394  -0.000013   0.000000  -0.000017
     7  C    0.000000   0.000041   0.002176   0.001105   0.000023   0.001281
     8  C   -0.000001   0.000821   0.000005  -0.024783   0.001382   0.000015
     9  C    0.000000  -0.000005   0.000001   0.385114  -0.026035   0.001349
    10  C    0.000000   0.000000   0.000000  -0.025938   0.386790  -0.025756
    11  C    0.000000   0.000000   0.000000   0.001407  -0.025206   0.386937
    12  C    0.000000   0.000000  -0.000015   0.000013   0.001344  -0.025384
    13  N    6.593948   0.658312   0.000104   0.000000   0.000000   0.000000
    14  C    0.658312   4.946974  -0.003993  -0.000001   0.000000   0.000000
    15  H    0.000104  -0.003993   0.656411   0.000000   0.000000   0.000000
    16  H    0.000000  -0.000001   0.000000   0.606112  -0.003812  -0.000035
    17  H    0.000000   0.000000   0.000000  -0.003812   0.618085  -0.003260
    18  H    0.000000   0.000000   0.000000  -0.000035  -0.003260   0.621320
    19  H    0.000000   0.000000  -0.000003   0.000002  -0.000035  -0.003782
              19
     1  N    0.000000
     2  C    0.000000
     3  C   -0.000016
     4  C    0.000001
     5  C    0.000030
     6  C   -0.001546
     7  C   -0.025854
     8  C    0.001418
     9  C    0.000030
    10  C    0.001440
    11  C   -0.026711
    12  C    0.384057
    13  N    0.000000
    14  C    0.000000
    15  H   -0.000003
    16  H    0.000002
    17  H   -0.000035
    18  H   -0.003782
    19  H    0.607396
 Mulliken charges:
               1
     1  N   -0.249259
     2  C    0.041332
     3  C   -0.046699
     4  C   -0.020733
     5  C   -0.134475
     6  C   -0.200620
     7  C   -0.046915
     8  C   -0.014908
     9  C   -0.096923
    10  C   -0.097972
    11  C   -0.110208
    12  C   -0.080633
    13  N   -0.241564
    14  C    0.045849
    15  H    0.029136
    16  H    0.062947
    17  H    0.050741
    18  H    0.047332
    19  H    0.063573
 Sum of Mulliken charges =  -1.00000
 Mulliken charges with hydrogens summed into heavy atoms:
               1
     1  N   -0.249259
     2  C    0.041332
     3  C   -0.046699
     4  C   -0.020733
     5  C   -0.105339
     6  C   -0.200620
     7  C   -0.046915
     8  C   -0.014908
     9  C   -0.033975
    10  C   -0.047231
    11  C   -0.062875
    12  C   -0.017061
    13  N   -0.241564
    14  C    0.045849
 Electronic spatial extent (au):  <R**2>=           2655.9402
 Charge=             -1.0000 electrons
 Dipole moment (field-independent basis, Debye):
    X=             -4.3835    Y=              1.7427    Z=              0.0003  Tot=              4.7172
 Quadrupole moment (field-independent basis, Debye-Ang):
   XX=           -106.4079   YY=            -99.8474   ZZ=            -74.1563
   XY=             -7.2684   XZ=              0.0003   YZ=             -0.0015
 Traceless Quadrupole moment (field-independent basis, Debye-Ang):
   XX=            -12.9373   YY=             -6.3769   ZZ=             19.3143
   XY=             -7.2684   XZ=              0.0003   YZ=             -0.0015
 Octapole moment (field-independent basis, Debye-Ang**2):
  XXX=           -105.6349  YYY=              8.5622  ZZZ=              0.0000  XYY=            -17.3459
  XXY=             -1.3967  XXZ=              0.0045  XZZ=              6.8837  YZZ=              2.0458
  YYZ=              0.0006  XYZ=             -0.0001
 Hexadecapole moment (field-independent basis, Debye-Ang**3):
 XXXX=          -2877.6725 YYYY=          -1275.9706 ZZZZ=            -58.3678 XXXY=             33.1513
 XXXZ=              0.0160 YYYX=           -111.1064 YYYZ=             -0.0145 ZZZX=             -0.0012
 ZZZY=              0.0010 XXYY=           -604.1538 XXZZ=           -403.1729 YYZZ=           -181.4824
 XXYZ=             -0.0072 YYXZ=             -0.0046 ZZXY=              3.3707
 N-N= 7.026226377909D+02 E-N=-2.727622573440D+03  KE= 5.547299110512D+02
 1\1\GINC-N055\FOpt\RB3LYP\STO-3G\C12H5N2(1-)\R2532\15-Jun-2021\0\\#N B
 3LYP/STO-3G OPT\\1Naph\\-1,1\N,2.5208301848,3.6955375554,0.3575182181\
 C,3.5237420298,3.1146065457,0.0413736676\C,4.7291656469,2.3975447043,-
 0.3342467569\C,5.814482776,3.0637629532,-0.9750087494\C,7.001660078,2.
 3473776254,-1.3425948915\C,7.271262483,0.9540859062,-1.1422904245\C,6.
 1030091797,0.3229760423,-0.4722311151\C,4.8661223957,0.9801359207,-0.0
 687354555\C,3.8191095428,0.2272877556,0.5747651529\C,3.9650580226,-1.1
 292833759,0.8222565076\C,5.1664499927,-1.802839629,0.4385910706\C,6.18
 57930329,-1.0921864548,-0.1828336142\N,5.7046829186,5.6696772923,-1.52
 71997749\C,5.7121008378,4.4990045372,-1.2603293519\H,7.7666518998,2.97
 64982308,-1.8310409971\H,2.897384305,0.7490022061,0.868014947\H,3.1591
 075172,-1.6911358721,1.3134798343\H,5.2714555858,-2.8770390718,0.63940
 16964\H,7.1121415708,-1.6053128716,-0.4801199635\\Version=ES64L-G09Rev
 D.01\State=1-A\HF=-562.5179178\RMSD=7.573e-09\RMSF=6.128e-06\Dipole=-0
 .6611177,-1.6010452,0.6662351\Quadrupole=-1.4851944,-9.7027813,11.1879
 757,6.2870254,5.6621782,2.7299535\PG=C01 [X(C12H5N2)]\\@


 MODELS ARE TO BE USED, NOT BELIEVED.

    -- PARAPHRASED BY H. THIEL IN "PRINCIPLES OF ECONOMETRICS"
 Job cpu time:       0 days  0 hours  5 minutes 58.7 seconds.
 File lengths (MBytes):  RWF=      5 Int=      0 D2E=      0 Chk=      2 Scr=      1
 Normal termination of Gaussian 09 at Tue Jun 15 11:19:44 2021.
