 Entering Gaussian System, Link 0=/usr/local/apps//g09/g09
 Input=30.com
 Output=30.out
 Initial command:
 /usr/local/apps//g09/l1.exe "/tmp/bnp.472689.sequoia/Gau-19354.inp" -scrdir="/tmp/bnp.472689.sequoia/"
 Entering Link 1 = /usr/local/apps//g09/l1.exe PID=     19355.
  
 Copyright (c) 1988,1990,1992,1993,1995,1998,2003,2009,2013,
            Gaussian, Inc.  All Rights Reserved.
  
 This is part of the Gaussian(R) 09 program.  It is based on
 the Gaussian(R) 03 system (copyright 2003, Gaussian, Inc.),
 the Gaussian(R) 98 system (copyright 1998, Gaussian, Inc.),
 the Gaussian(R) 94 system (copyright 1995, Gaussian, Inc.),
 the Gaussian 92(TM) system (copyright 1992, Gaussian, Inc.),
 the Gaussian 90(TM) system (copyright 1990, Gaussian, Inc.),
 the Gaussian 88(TM) system (copyright 1988, Gaussian, Inc.),
 the Gaussian 86(TM) system (copyright 1986, Carnegie Mellon
 University), and the Gaussian 82(TM) system (copyright 1983,
 Carnegie Mellon University). Gaussian is a federally registered
 trademark of Gaussian, Inc.
  
 This software contains proprietary and confidential information,
 including trade secrets, belonging to Gaussian, Inc.
  
 This software is provided under written license and may be
 used, copied, transmitted, or stored only in accord with that
 written license.
  
 The following legend is applicable only to US Government
 contracts under FAR:
  
                    RESTRICTED RIGHTS LEGEND
  
 Use, reproduction and disclosure by the US Government is
 subject to restrictions as set forth in subparagraphs (a)
 and (c) of the Commercial Computer Software - Restricted
 Rights clause in FAR 52.227-19.
  
 Gaussian, Inc.
 340 Quinnipiac St., Bldg. 40, Wallingford CT 06492
  
  
 ---------------------------------------------------------------
 Warning -- This program may not be used in any manner that
 competes with the business of Gaussian, Inc. or will provide
 assistance to any competitor of Gaussian, Inc.  The licensee
 of this program is prohibited from giving any competitor of
 Gaussian, Inc. access to this program.  By using this program,
 the user acknowledges that Gaussian, Inc. is engaged in the
 business of creating and licensing software in the field of
 computational chemistry and represents and warrants to the
 licensee that it is not a competitor of Gaussian, Inc. and that
 it will not use this program in any manner prohibited above.
 ---------------------------------------------------------------
  

 Cite this work as:
 Gaussian 09, Revision D.01,
 M. J. Frisch, G. W. Trucks, H. B. Schlegel, G. E. Scuseria, 
 M. A. Robb, J. R. Cheeseman, G. Scalmani, V. Barone, B. Mennucci, 
 G. A. Petersson, H. Nakatsuji, M. Caricato, X. Li, H. P. Hratchian, 
 A. F. Izmaylov, J. Bloino, G. Zheng, J. L. Sonnenberg, M. Hada, 
 M. Ehara, K. Toyota, R. Fukuda, J. Hasegawa, M. Ishida, T. Nakajima, 
 Y. Honda, O. Kitao, H. Nakai, T. Vreven, J. A. Montgomery, Jr., 
 J. E. Peralta, F. Ogliaro, M. Bearpark, J. J. Heyd, E. Brothers, 
 K. N. Kudin, V. N. Staroverov, T. Keith, R. Kobayashi, J. Normand, 
 K. Raghavachari, A. Rendell, J. C. Burant, S. S. Iyengar, J. Tomasi, 
 M. Cossi, N. Rega, J. M. Millam, M. Klene, J. E. Knox, J. B. Cross, 
 V. Bakken, C. Adamo, J. Jaramillo, R. Gomperts, R. E. Stratmann, 
 O. Yazyev, A. J. Austin, R. Cammi, C. Pomelli, J. W. Ochterski, 
 R. L. Martin, K. Morokuma, V. G. Zakrzewski, G. A. Voth, 
 P. Salvador, J. J. Dannenberg, S. Dapprich, A. D. Daniels, 
 O. Farkas, J. B. Foresman, J. V. Ortiz, J. Cioslowski, 
 and D. J. Fox, Gaussian, Inc., Wallingford CT, 2013.
 
 ******************************************
 Gaussian 09:  ES64L-G09RevD.01 24-Apr-2013
                15-Jun-2021 
 ******************************************
 -------------------
 #N B3LYP/STO-3G OPT
 -------------------
 1/14=-1,18=20,19=15,26=3,38=1/1,3;
 2/9=110,12=2,17=6,18=5,40=1/2;
 3/6=3,11=2,16=1,25=1,30=1,71=1,74=-5/1,2,3;
 4//1;
 5/5=2,38=5/2;
 6/7=2,8=2,9=2,10=2,28=1/1;
 7//1,2,3,16;
 1/14=-1,18=20,19=15,26=3/3(2);
 2/9=110/2;
 99//99;
 2/9=110/2;
 3/6=3,11=2,16=1,25=1,30=1,71=1,74=-5/1,2,3;
 4/5=5,16=3,69=1/1;
 5/5=2,38=5/2;
 7//1,2,3,16;
 1/14=-1,18=20,19=15,26=3/3(-5);
 2/9=110/2;
 6/7=2,8=2,9=2,10=2,19=2,28=1/1;
 99/9=1/99;
 -----
 1Naph
 -----
 Symbolic Z-matrix:
 Charge = -1 Multiplicity = 1
 N                     1.19757  -2.3201    0.05445 
 C                     2.35209  -2.19906   0.11523 
 C                     3.77221  -2.02839   0.18119 
 C                     4.53115  -3.13979   0.55686 
 C                     5.91355  -3.05228   0.65409 
 C                     6.55572  -1.85864   0.32934 
 C                     5.82063  -0.72242  -0.04748 
 C                     4.40422  -0.78695  -0.09833 
 C                     3.69844   0.40132  -0.40087 
 C                     4.36656   1.6034   -0.65382 
 C                     5.7595    1.6451   -0.64243 
 C                     6.47997   0.48387  -0.34366 
 N                     7.01175   3.863    -1.13642 
 C                     6.44933   2.87205  -0.91669 
 H                     6.48472  -3.90997   0.99884 
 H                     7.6416   -1.81441   0.40465 
 H                     2.6084    0.41298  -0.41784 
 H                     3.78653   2.50353  -0.85288 
 H                     7.56923   0.52593  -0.32397 
 

 GradGradGradGradGradGradGradGradGradGradGradGradGradGradGradGradGradGrad
 Berny optimization.
 Initialization pass.
                           ----------------------------
                           !    Initial Parameters    !
                           ! (Angstroms and Degrees)  !
 --------------------------                            --------------------------
 ! Name  Definition              Value          Derivative Info.                !
 --------------------------------------------------------------------------------
 ! R1    R(1,2)                  1.1624         estimate D2E/DX2                !
 ! R2    R(2,3)                  1.4319         estimate D2E/DX2                !
 ! R3    R(3,4)                  1.3973         estimate D2E/DX2                !
 ! R4    R(3,8)                  1.4208         estimate D2E/DX2                !
 ! R5    R(4,5)                  1.3886         estimate D2E/DX2                !
 ! R6    R(5,6)                  1.3938         estimate D2E/DX2                !
 ! R7    R(5,15)                 1.0866         estimate D2E/DX2                !
 ! R8    R(6,7)                  1.4048         estimate D2E/DX2                !
 ! R9    R(6,16)                 1.0894         estimate D2E/DX2                !
 ! R10   R(7,8)                  1.4188         estimate D2E/DX2                !
 ! R11   R(7,12)                 1.4063         estimate D2E/DX2                !
 ! R12   R(8,9)                  1.4148         estimate D2E/DX2                !
 ! R13   R(9,10)                 1.3983         estimate D2E/DX2                !
 ! R14   R(9,17)                 1.0902         estimate D2E/DX2                !
 ! R15   R(10,11)                1.3936         estimate D2E/DX2                !
 ! R16   R(10,18)                1.0892         estimate D2E/DX2                !
 ! R17   R(11,12)                1.3989         estimate D2E/DX2                !
 ! R18   R(11,14)                1.434          estimate D2E/DX2                !
 ! R19   R(12,19)                1.0902         estimate D2E/DX2                !
 ! R20   R(13,14)                1.1604         estimate D2E/DX2                !
 ! A1    A(2,3,4)              117.1478         estimate D2E/DX2                !
 ! A2    A(2,3,8)              122.4291         estimate D2E/DX2                !
 ! A3    A(4,3,8)              120.416          estimate D2E/DX2                !
 ! A4    A(3,4,5)              120.627          estimate D2E/DX2                !
 ! A5    A(4,5,6)              119.7587         estimate D2E/DX2                !
 ! A6    A(4,5,15)             119.7211         estimate D2E/DX2                !
 ! A7    A(6,5,15)             120.5122         estimate D2E/DX2                !
 ! A8    A(5,6,7)              120.9369         estimate D2E/DX2                !
 ! A9    A(5,6,16)             118.5497         estimate D2E/DX2                !
 ! A10   A(7,6,16)             120.4845         estimate D2E/DX2                !
 ! A11   A(6,7,8)              119.6852         estimate D2E/DX2                !
 ! A12   A(6,7,12)             120.3291         estimate D2E/DX2                !
 ! A13   A(8,7,12)             119.9694         estimate D2E/DX2                !
 ! A14   A(3,8,7)              118.4741         estimate D2E/DX2                !
 ! A15   A(3,8,9)              123.6431         estimate D2E/DX2                !
 ! A16   A(7,8,9)              117.8711         estimate D2E/DX2                !
 ! A17   A(8,9,10)             121.4892         estimate D2E/DX2                !
 ! A18   A(8,9,17)             120.7357         estimate D2E/DX2                !
 ! A19   A(10,9,17)            117.7555         estimate D2E/DX2                !
 ! A20   A(9,10,11)            120.1197         estimate D2E/DX2                !
 ! A21   A(9,10,18)            119.2786         estimate D2E/DX2                !
 ! A22   A(11,10,18)           120.6007         estimate D2E/DX2                !
 ! A23   A(10,11,12)           119.4524         estimate D2E/DX2                !
 ! A24   A(10,11,14)           120.321          estimate D2E/DX2                !
 ! A25   A(12,11,14)           120.2212         estimate D2E/DX2                !
 ! A26   A(7,12,11)            121.0364         estimate D2E/DX2                !
 ! A27   A(7,12,19)            119.8494         estimate D2E/DX2                !
 ! A28   A(11,12,19)           119.1047         estimate D2E/DX2                !
 ! A29   L(1,2,3,17,-1)        179.077          estimate D2E/DX2                !
 ! A30   L(11,14,13,19,-1)     179.7598         estimate D2E/DX2                !
 ! A31   L(1,2,3,17,-2)        180.1673         estimate D2E/DX2                !
 ! A32   L(11,14,13,19,-2)     180.0969         estimate D2E/DX2                !
 ! D1    D(2,3,4,5)           -179.5048         estimate D2E/DX2                !
 ! D2    D(8,3,4,5)             -0.4485         estimate D2E/DX2                !
 ! D3    D(2,3,8,7)           -178.0978         estimate D2E/DX2                !
 ! D4    D(2,3,8,9)              3.1728         estimate D2E/DX2                !
 ! D5    D(4,3,8,7)              2.8971         estimate D2E/DX2                !
 ! D6    D(4,3,8,9)           -175.8323         estimate D2E/DX2                !
 ! D7    D(3,4,5,6)             -2.2472         estimate D2E/DX2                !
 ! D8    D(3,4,5,15)           176.7273         estimate D2E/DX2                !
 ! D9    D(4,5,6,7)              2.4524         estimate D2E/DX2                !
 ! D10   D(4,5,6,16)          -179.4929         estimate D2E/DX2                !
 ! D11   D(15,5,6,7)          -176.5139         estimate D2E/DX2                !
 ! D12   D(15,5,6,16)            1.5408         estimate D2E/DX2                !
 ! D13   D(5,6,7,8)              0.0472         estimate D2E/DX2                !
 ! D14   D(5,6,7,12)           178.5774         estimate D2E/DX2                !
 ! D15   D(16,6,7,8)          -177.9699         estimate D2E/DX2                !
 ! D16   D(16,6,7,12)            0.5603         estimate D2E/DX2                !
 ! D17   D(6,7,8,3)             -2.6823         estimate D2E/DX2                !
 ! D18   D(6,7,8,9)            176.1211         estimate D2E/DX2                !
 ! D19   D(12,7,8,3)           178.7822         estimate D2E/DX2                !
 ! D20   D(12,7,8,9)            -2.4144         estimate D2E/DX2                !
 ! D21   D(6,7,12,11)         -176.1391         estimate D2E/DX2                !
 ! D22   D(6,7,12,19)            2.7282         estimate D2E/DX2                !
 ! D23   D(8,7,12,11)            2.3869         estimate D2E/DX2                !
 ! D24   D(8,7,12,19)         -178.7458         estimate D2E/DX2                !
 ! D25   D(3,8,9,10)           179.2427         estimate D2E/DX2                !
 ! D26   D(3,8,9,17)             0.8867         estimate D2E/DX2                !
 ! D27   D(7,8,9,10)             0.5062         estimate D2E/DX2                !
 ! D28   D(7,8,9,17)          -177.8498         estimate D2E/DX2                !
 ! D29   D(8,9,10,11)            1.5025         estimate D2E/DX2                !
 ! D30   D(8,9,10,18)         -178.129          estimate D2E/DX2                !
 ! D31   D(17,9,10,11)         179.9057         estimate D2E/DX2                !
 ! D32   D(17,9,10,18)           0.2742         estimate D2E/DX2                !
 ! D33   D(9,10,11,12)          -1.5766         estimate D2E/DX2                !
 ! D34   D(9,10,11,14)         179.2679         estimate D2E/DX2                !
 ! D35   D(18,10,11,12)        178.05           estimate D2E/DX2                !
 ! D36   D(18,10,11,14)         -1.1056         estimate D2E/DX2                !
 ! D37   D(10,11,12,7)          -0.3583         estimate D2E/DX2                !
 ! D38   D(10,11,12,19)       -179.2339         estimate D2E/DX2                !
 ! D39   D(14,11,12,7)         178.7981         estimate D2E/DX2                !
 ! D40   D(14,11,12,19)         -0.0775         estimate D2E/DX2                !
 --------------------------------------------------------------------------------
 Trust Radius=3.00D-01 FncErr=1.00D-07 GrdErr=1.00D-06
 Number of steps in this run=    102 maximum allowed number of steps=    114.
 GradGradGradGradGradGradGradGradGradGradGradGradGradGradGradGradGradGrad

                          Input orientation:                          
 ---------------------------------------------------------------------
 Center     Atomic      Atomic             Coordinates (Angstroms)
 Number     Number       Type             X           Y           Z
 ---------------------------------------------------------------------
      1          7           0        1.197570   -2.320100    0.054450
      2          6           0        2.352090   -2.199060    0.115230
      3          6           0        3.772210   -2.028390    0.181190
      4          6           0        4.531150   -3.139790    0.556860
      5          6           0        5.913550   -3.052280    0.654090
      6          6           0        6.555720   -1.858640    0.329340
      7          6           0        5.820630   -0.722420   -0.047480
      8          6           0        4.404220   -0.786950   -0.098330
      9          6           0        3.698440    0.401320   -0.400870
     10          6           0        4.366560    1.603400   -0.653820
     11          6           0        5.759500    1.645100   -0.642430
     12          6           0        6.479970    0.483870   -0.343660
     13          7           0        7.011750    3.863000   -1.136420
     14          6           0        6.449330    2.872050   -0.916690
     15          1           0        6.484720   -3.909970    0.998840
     16          1           0        7.641600   -1.814410    0.404650
     17          1           0        2.608400    0.412980   -0.417840
     18          1           0        3.786530    2.503530   -0.852880
     19          1           0        7.569230    0.525930   -0.323970
 ---------------------------------------------------------------------
                    Distance matrix (angstroms):
                    1          2          3          4          5
     1  N    0.000000
     2  C    1.162438   0.000000
     3  C    2.594211   1.431859   0.000000
     4  C    3.469447   2.414190   1.397257   0.000000
     5  C    4.810002   3.701669   2.420191   1.388575   0.000000
     6  C    5.385005   4.222823   2.792614   2.406656   1.393780
     7  C    4.892408   3.773289   2.440056   2.805648   2.434971
     8  C    3.557597   2.500180   1.420824   2.445658   2.824169
     9  C    3.723949   2.973381   2.499545   3.761664   4.236391
    10  C    5.092936   4.371296   3.773644   4.898029   5.077318
    11  C    6.084378   5.192500   4.257018   5.083533   4.875456
    12  C    5.993704   4.944501   3.730802   4.211858   3.717619
    13  N    8.570507   7.747750   6.851218   7.619688   7.227245
    14  C    7.448659   6.600636   5.690925   6.480199   6.152406
    15  H    5.601206   4.559234   3.400971   2.145917   1.086609
    16  H    6.473321   5.311369   3.881739   3.384479   2.140257
    17  H    3.111788   2.678173   2.770122   4.155621   4.907247
    18  H    5.549177   5.010909   4.648420   5.864204   6.136953
    19  H    6.988644   5.902289   4.604031   4.841828   4.062199
                    6          7          8          9         10
     6  C    0.000000
     7  C    1.404759   0.000000
     8  C    2.441388   1.418791   0.000000
     9  C    3.715464   2.427214   1.414794   0.000000
    10  C    4.212451   2.809165   2.454335   1.398343   0.000000
    11  C    3.722163   2.441895   2.836846   2.419361   1.393611
    12  C    2.438446   1.406267   2.446203   2.783343   2.411648
    13  N    5.923983   4.861135   5.431287   4.847916   3.512225
    14  C    4.893193   3.751134   4.270886   3.733359   2.452856
    15  H    2.158987   3.419982   3.909670   5.320692   6.133118
    16  H    1.089387   2.170897   3.433554   4.594217   4.850533
    17  H    4.615178   3.427057   2.183320   1.090234   2.136332
    18  H    5.300432   3.897818   3.431930   2.152059   1.089171
    19  H    2.672114   2.166201   3.433927   3.873559   3.395120
                   11         12         13         14         15
    11  C    0.000000
    12  C    1.398855   0.000000
    13  N    2.594463   3.511378   0.000000
    14  C    1.434047   2.456157   1.160422   0.000000
    15  H    5.837681   4.594362   8.078128   7.047432   0.000000
    16  H    4.075155   2.681687   5.916468   5.013018   2.466334
    17  H    3.390869   3.872929   5.639901   4.587877   5.976683
    18  H    2.161898   3.404842   3.511495   2.688937   7.200144
    19  H    2.151530   1.090250   3.479496   2.666416   4.754282
                   16         17         18         19
    16  H    0.000000
    17  H    5.565147   0.000000
    18  H    5.923475   2.438780   0.000000
    19  H    2.452206   4.963003   4.301101   0.000000
 Stoichiometry    C12H5N2(1-)
 Framework group  C1[X(C12H5N2)]
 Deg. of freedom    51
 Full point group                 C1      NOp   1
 Largest Abelian subgroup         C1      NOp   1
 Largest concise Abelian subgroup C1      NOp   1
                         Standard orientation:                         
 ---------------------------------------------------------------------
 Center     Atomic      Atomic             Coordinates (Angstroms)
 Number     Number       Type             X           Y           Z
 ---------------------------------------------------------------------
      1          7           0        3.521052   -2.290852   -0.042943
      2          6           0        2.868169   -1.329202   -0.027661
      3          6           0        2.044832   -0.157841   -0.011870
      4          6           0        2.695354    1.078281    0.022075
      5          6           0        1.967235    2.260327    0.049508
      6          6           0        0.575174    2.216762   -0.004245
      7          6           0       -0.108329    0.989876   -0.034569
      8          6           0        0.625556   -0.224100   -0.009248
      9          6           0       -0.102441   -1.436078    0.043397
     10          6           0       -1.500640   -1.448164    0.059438
     11          6           0       -2.211160   -0.251197   -0.008238
     12          6           0       -1.514084    0.960554   -0.058646
     13          7           0       -4.805602   -0.261305   -0.006236
     14          6           0       -3.645183   -0.259507   -0.007892
     15          1           0        2.486759    3.211328    0.129583
     16          1           0        0.023936    3.156280    0.010097
     17          1           0        0.414263   -2.394438    0.099743
     18          1           0       -2.024305   -2.400479    0.131305
     19          1           0       -2.075709    1.894156   -0.098773
 ---------------------------------------------------------------------
 Rotational constants (GHZ):      1.4828401      0.4695550      0.3567517
 Standard basis: STO-3G (5D, 7F)
 There are    75 symmetry adapted cartesian basis functions of A   symmetry.
 There are    75 symmetry adapted basis functions of A   symmetry.
    75 basis functions,   225 primitive gaussians,    75 cartesian basis functions
    46 alpha electrons       46 beta electrons
       nuclear repulsion energy       705.4599962448 Hartrees.
 NAtoms=   19 NActive=   19 NUniq=   19 SFac= 1.00D+00 NAtFMM=   60 NAOKFM=F Big=F
 Integral buffers will be    131072 words long.
 Raffenetti 2 integral format.
 Two-electron integral symmetry is turned on.
 One-electron integrals computed using PRISM.
 NBasis=    75 RedAO= T EigKep=  1.55D-01  NBF=    75
 NBsUse=    75 1.00D-06 EigRej= -1.00D+00 NBFU=    75
 ExpMin= 1.69D-01 ExpMax= 9.91D+01 ExpMxC= 9.91D+01 IAcc=1 IRadAn=         1 AccDes= 0.00D+00
 Harris functional with IExCor=  402 and IRadAn=       1 diagonalized for initial guess.
 HarFok:  IExCor=  402 AccDes= 0.00D+00 IRadAn=         1 IDoV= 1 UseB2=F ITyADJ=14
 ICtDFT=  3500011 ScaDFX=  1.000000  1.000000  1.000000  1.000000
 FoFCou: FMM=F IPFlag=           0 FMFlag=      100000 FMFlg1=           0
         NFxFlg=           0 DoJE=T BraDBF=F KetDBF=T FulRan=T
         wScrn=  0.000000 ICntrl=     500 IOpCl=  0 I1Cent=   200000004 NGrid=           0
         NMat0=    1 NMatS0=      1 NMatT0=    0 NMatD0=    1 NMtDS0=    0 NMtDT0=    0
 Petite list used in FoFCou.
 Keep R1 ints in memory in canonical form, NReq=4993994.
 Requested convergence on RMS density matrix=1.00D-08 within 128 cycles.
 Requested convergence on MAX density matrix=1.00D-06.
 Requested convergence on             energy=1.00D-06.
 No special actions if energy rises.
 Integral accuracy reduced to 1.0D-05 until final iterations.
 EnCoef did     4 forward-backward iterations
 EnCoef did   100 forward-backward iterations
 EnCoef did     2 forward-backward iterations
 EnCoef did     5 forward-backward iterations
 Initial convergence to 1.0D-05 achieved.  Increase integral accuracy.
 SCF Done:  E(RB3LYP) =  -562.488333398     A.U. after   24 cycles
            NFock= 24  Conv=0.78D-08     -V/T= 2.0129

 **********************************************************************

            Population analysis using the SCF density.

 **********************************************************************

 Orbital symmetries:
       Occupied  (A) (A) (A) (A) (A) (A) (A) (A) (A) (A) (A) (A)
                 (A) (A) (A) (A) (A) (A) (A) (A) (A) (A) (A) (A)
                 (A) (A) (A) (A) (A) (A) (A) (A) (A) (A) (A) (A)
                 (A) (A) (A) (A) (A) (A) (A) (A) (A) (A)
       Virtual   (A) (A) (A) (A) (A) (A) (A) (A) (A) (A) (A) (A)
                 (A) (A) (A) (A) (A) (A) (A) (A) (A) (A) (A) (A)
                 (A) (A) (A) (A) (A)
 The electronic state is 1-A.
 Alpha  occ. eigenvalues --  -14.00169 -13.93692  -9.90926  -9.90824  -9.88324
 Alpha  occ. eigenvalues --   -9.87958  -9.87222  -9.87053  -9.86587  -9.85000
 Alpha  occ. eigenvalues --   -9.84161  -9.83048  -9.81528  -9.66880  -0.75367
 Alpha  occ. eigenvalues --   -0.69976  -0.69007  -0.63070  -0.59220  -0.54773
 Alpha  occ. eigenvalues --   -0.53144  -0.44589  -0.43481  -0.41986  -0.36344
 Alpha  occ. eigenvalues --   -0.31738  -0.31167  -0.27887  -0.26309  -0.24281
 Alpha  occ. eigenvalues --   -0.22398  -0.21556  -0.19660  -0.18494  -0.18278
 Alpha  occ. eigenvalues --   -0.15714  -0.15617  -0.14366  -0.14118  -0.11242
 Alpha  occ. eigenvalues --   -0.10986  -0.09226  -0.07776  -0.03126   0.00874
 Alpha  occ. eigenvalues --    0.13402
 Alpha virt. eigenvalues --    0.17406   0.20077   0.26348   0.26473   0.31125
 Alpha virt. eigenvalues --    0.31999   0.35554   0.39609   0.44460   0.48647
 Alpha virt. eigenvalues --    0.50552   0.52404   0.55634   0.56951   0.58417
 Alpha virt. eigenvalues --    0.60903   0.62966   0.65962   0.69646   0.72318
 Alpha virt. eigenvalues --    0.74482   0.77824   0.80499   0.85885   0.88758
 Alpha virt. eigenvalues --    0.97717   0.98461   1.13488   1.19075
          Condensed to atoms (all electrons):
               1          2          3          4          5          6
     1  N    6.616371   0.683913  -0.011607  -0.000144  -0.000002   0.000000
     2  C    0.683913   4.911564   0.424185  -0.038187   0.001391  -0.000013
     3  C   -0.011607   0.424185   4.834410   0.480472  -0.029692  -0.012959
     4  C   -0.000144  -0.038187   0.480472   5.393439   0.466244  -0.029308
     5  C   -0.000002   0.001391  -0.029692   0.466244   4.864389   0.503944
     6  C    0.000000  -0.000013  -0.012959  -0.029308   0.503944   4.871217
     7  C   -0.000001   0.000842  -0.032297  -0.011826  -0.030207   0.481723
     8  C    0.000041  -0.036183   0.457697  -0.028351  -0.011336  -0.029339
     9  C   -0.000094  -0.003747  -0.028217   0.000944   0.000047   0.001017
    10  C    0.000000   0.000007   0.000811  -0.000012   0.000000   0.000042
    11  C    0.000000   0.000000   0.000036   0.000000  -0.000010   0.000954
    12  C    0.000000  -0.000008   0.000922   0.000015   0.000914  -0.033471
    13  N    0.000000   0.000000   0.000000   0.000000   0.000000   0.000000
    14  C    0.000000   0.000000   0.000000   0.000000   0.000000  -0.000008
    15  H    0.000000  -0.000007   0.002058  -0.035989   0.386648  -0.033139
    16  H    0.000000   0.000002   0.000093   0.001712  -0.026861   0.382353
    17  H   -0.000079   0.001494  -0.003575   0.000025   0.000000  -0.000020
    18  H    0.000000   0.000000  -0.000017   0.000000   0.000000   0.000001
    19  H    0.000000   0.000000  -0.000019   0.000000   0.000028  -0.004333
               7          8          9         10         11         12
     1  N   -0.000001   0.000041  -0.000094   0.000000   0.000000   0.000000
     2  C    0.000842  -0.036183  -0.003747   0.000007   0.000000  -0.000008
     3  C   -0.032297   0.457697  -0.028217   0.000811   0.000036   0.000922
     4  C   -0.011826  -0.028351   0.000944  -0.000012   0.000000   0.000015
     5  C   -0.030207  -0.011336   0.000047   0.000000  -0.000010   0.000914
     6  C    0.481723  -0.029339   0.001017   0.000042   0.000954  -0.033471
     7  C    4.781318   0.467993  -0.030249  -0.010224  -0.029099   0.487882
     8  C    0.467993   4.799245   0.473523  -0.027445  -0.009581  -0.027755
     9  C   -0.030249   0.473523   4.837300   0.518330  -0.030780  -0.011952
    10  C   -0.010224  -0.027445   0.518330   4.827444   0.482868  -0.032148
    11  C   -0.029099  -0.009581  -0.030780   0.482868   4.759755   0.503644
    12  C    0.487882  -0.027755  -0.011952  -0.032148   0.503644   4.831157
    13  N   -0.000001   0.000000  -0.000001  -0.000118  -0.011565  -0.000177
    14  C    0.000974   0.000011   0.001025  -0.031569   0.428978  -0.030843
    15  H    0.001358  -0.000048   0.000002   0.000000   0.000000  -0.000021
    16  H   -0.026986   0.001358  -0.000018  -0.000002   0.000027  -0.004432
    17  H    0.001397  -0.024768   0.389757  -0.027799   0.001496   0.000046
    18  H    0.000035   0.001390  -0.025468   0.390328  -0.025988   0.001433
    19  H   -0.024797   0.001374   0.000047   0.001445  -0.026656   0.389598
              13         14         15         16         17         18
     1  N    0.000000   0.000000   0.000000   0.000000  -0.000079   0.000000
     2  C    0.000000   0.000000  -0.000007   0.000002   0.001494   0.000000
     3  C    0.000000   0.000000   0.002058   0.000093  -0.003575  -0.000017
     4  C    0.000000   0.000000  -0.035989   0.001712   0.000025   0.000000
     5  C    0.000000   0.000000   0.386648  -0.026861   0.000000   0.000000
     6  C    0.000000  -0.000008  -0.033139   0.382353  -0.000020   0.000001
     7  C   -0.000001   0.000974   0.001358  -0.026986   0.001397   0.000035
     8  C    0.000000   0.000011  -0.000048   0.001358  -0.024768   0.001390
     9  C   -0.000001   0.001025   0.000002  -0.000018   0.389757  -0.025468
    10  C   -0.000118  -0.031569   0.000000  -0.000002  -0.027799   0.390328
    11  C   -0.011565   0.428978   0.000000   0.000027   0.001496  -0.025988
    12  C   -0.000177  -0.030843  -0.000021  -0.004432   0.000046   0.001433
    13  N    6.575806   0.687894   0.000000   0.000000   0.000000   0.000063
    14  C    0.687894   4.892262   0.000000  -0.000001  -0.000020  -0.003736
    15  H    0.000000   0.000000   0.650409  -0.003096   0.000000   0.000000
    16  H    0.000000  -0.000001  -0.003096   0.634884   0.000001   0.000000
    17  H    0.000000  -0.000020   0.000000   0.000001   0.596624  -0.004184
    18  H    0.000063  -0.003736   0.000000   0.000000  -0.004184   0.603528
    19  H    0.000066  -0.003860  -0.000002   0.000955   0.000002  -0.000040
              19
     1  N    0.000000
     2  C    0.000000
     3  C   -0.000019
     4  C    0.000000
     5  C    0.000028
     6  C   -0.004333
     7  C   -0.024797
     8  C    0.001374
     9  C    0.000047
    10  C    0.001445
    11  C   -0.026656
    12  C    0.389598
    13  N    0.000066
    14  C   -0.003860
    15  H   -0.000002
    16  H    0.000955
    17  H    0.000002
    18  H   -0.000040
    19  H    0.600100
 Mulliken charges:
               1
     1  N   -0.288398
     2  C    0.054746
     3  C   -0.082300
     4  C   -0.199033
     5  C   -0.125499
     6  C   -0.098661
     7  C   -0.027835
     8  C   -0.007826
     9  C   -0.091466
    10  C   -0.091959
    11  C   -0.044079
    12  C   -0.074805
    13  N   -0.251967
    14  C    0.058893
    15  H    0.031827
    16  H    0.040011
    17  H    0.069604
    18  H    0.062653
    19  H    0.066092
 Sum of Mulliken charges =  -1.00000
 Mulliken charges with hydrogens summed into heavy atoms:
               1
     1  N   -0.288398
     2  C    0.054746
     3  C   -0.082300
     4  C   -0.199033
     5  C   -0.093672
     6  C   -0.058651
     7  C   -0.027835
     8  C   -0.007826
     9  C   -0.021862
    10  C   -0.029306
    11  C   -0.044079
    12  C   -0.008712
    13  N   -0.251967
    14  C    0.058893
 Electronic spatial extent (au):  <R**2>=           2840.0958
 Charge=             -1.0000 electrons
 Dipole moment (field-independent basis, Debye):
    X=             -4.6599    Y=              0.9570    Z=              0.1160  Tot=              4.7585
 Quadrupole moment (field-independent basis, Debye-Ang):
   XX=           -139.7297   YY=            -84.2072   ZZ=            -73.9137
   XY=              3.7896   XZ=              0.4237   YZ=             -0.3559
 Traceless Quadrupole moment (field-independent basis, Debye-Ang):
   XX=            -40.4462   YY=             15.0763   ZZ=             25.3699
   XY=              3.7896   XZ=              0.4237   YZ=             -0.3559
 Octapole moment (field-independent basis, Debye-Ang**2):
  XXX=             32.1587  YYY=             10.9818  ZZZ=             -0.1023  XYY=            -49.1695
  XXY=             34.5737  XXZ=              1.9682  XZZ=             -0.9786  YZZ=             -2.4801
  YYZ=              0.6396  XYZ=             -0.3341
 Hexadecapole moment (field-independent basis, Debye-Ang**3):
 XXXX=          -3938.2178 YYYY=           -994.2050 ZZZZ=            -58.8356 XXXY=             58.5984
 XXXZ=              4.9853 YYYX=             67.0507 YYYZ=             -2.3783 ZZZX=             -0.1092
 ZZZY=              0.2717 XXYY=           -735.1209 XXZZ=           -438.6338 YYZZ=           -171.8077
 XXYZ=             -2.3478 YYXZ=              1.5608 ZZXY=             -6.4281
 N-N= 7.054599962448D+02 E-N=-2.733009960177D+03  KE= 5.553185456946D+02
 Calling FoFJK, ICntrl=      2127 FMM=F ISym2X=0 I1Cent= 0 IOpClX= 0 NMat=1 NMatS=1 NMatT=0.
 ***** Axes restored to original set *****
 -------------------------------------------------------------------
 Center     Atomic                   Forces (Hartrees/Bohr)
 Number     Number              X              Y              Z
 -------------------------------------------------------------------
      1        7          -0.098686996   -0.013097638   -0.002636709
      2        6           0.069918280    0.017934690   -0.006228209
      3        6           0.036543188   -0.011555481    0.011621198
      4        6          -0.055093243   -0.061252889    0.001473887
      5        6           0.012300089    0.037043824   -0.003577941
      6        6           0.025029737   -0.040288512    0.007254883
      7        6           0.017966202    0.008056895   -0.000945100
      8        6          -0.030032886    0.014932941    0.001249504
      9        6           0.000751081    0.031772985   -0.004903866
     10        6          -0.042993018   -0.013851752    0.000144610
     11        6           0.024204380   -0.004022173    0.002439351
     12        6           0.007710463    0.013485561   -0.003268185
     13        7           0.049752445    0.088162940   -0.019671264
     14        6          -0.038336153   -0.069263131    0.015496513
     15        1           0.012619252   -0.006485037    0.009529517
     16        1           0.010171363    0.007651954   -0.006538880
     17        1          -0.006345981   -0.004483820    0.001139180
     18        1          -0.001663433    0.006313656   -0.003243391
     19        1           0.006185230   -0.001055013    0.000664901
 -------------------------------------------------------------------
 Cartesian Forces:  Max     0.098686996 RMS     0.029806917

 GradGradGradGradGradGradGradGradGradGradGradGradGradGradGradGradGradGrad
 Berny optimization.
 FormGI is forming the generalized inverse of G from B-inverse, IUseBI=4.
 Internal  Forces:  Max     0.103125560 RMS     0.019831346
 Search for a local minimum.
 Step number   1 out of a maximum of  102
 All quantities printed in internal units (Hartrees-Bohrs-Radians)
 Mixed Optimization -- RFO/linear search
 Second derivative matrix not updated -- first step.
 ITU=  0
     Eigenvalues ---    0.01667   0.01667   0.01871   0.01884   0.01917
     Eigenvalues ---    0.01948   0.02001   0.02032   0.02042   0.02055
     Eigenvalues ---    0.02096   0.02127   0.02131   0.02148   0.02174
     Eigenvalues ---    0.02196   0.04861   0.04861   0.15991   0.15994
     Eigenvalues ---    0.15997   0.15998   0.16000   0.22319   0.22555
     Eigenvalues ---    0.23500   0.24369   0.24674   0.24977   0.24997
     Eigenvalues ---    0.24998   0.34784   0.34786   0.34884   0.34909
     Eigenvalues ---    0.35207   0.38368   0.40324   0.40413   0.40723
     Eigenvalues ---    0.40792   0.43157   0.43602   0.44987   0.45319
     Eigenvalues ---    0.45517   0.45701   0.46263   0.47039   1.26212
     Eigenvalues ---    1.27518
 RFO step:  Lambda=-5.53796771D-02 EMin= 1.66732414D-02
 Linear search not attempted -- first point.
 Maximum step size (   0.300) exceeded in Quadratic search.
    -- Step size scaled by   0.876
 Iteration  1 RMS(Cart)=  0.04920805 RMS(Int)=  0.00124978
 Iteration  2 RMS(Cart)=  0.00182886 RMS(Int)=  0.00054513
 Iteration  3 RMS(Cart)=  0.00000213 RMS(Int)=  0.00054513
 Iteration  4 RMS(Cart)=  0.00000000 RMS(Int)=  0.00054513
 Variable       Old X    -DE/DX   Delta X   Delta X   Delta X     New X
                                 (Linear)    (Quad)   (Total)
    R1        2.19669   0.09952   0.00000   0.06615   0.06615   2.26284
    R2        2.70582   0.02837   0.00000   0.05370   0.05370   2.75952
    R3        2.64043   0.02342   0.00000   0.04020   0.04057   2.68101
    R4        2.68497   0.03411   0.00000   0.06312   0.06329   2.74826
    R5        2.62403   0.05131   0.00000   0.08441   0.08461   2.70864
    R6        2.63386   0.01107   0.00000   0.01791   0.01773   2.65159
    R7        2.05339   0.01478   0.00000   0.03176   0.03176   2.08515
    R8        2.65461   0.03208   0.00000   0.05529   0.05491   2.70952
    R9        2.05864   0.01000   0.00000   0.02166   0.02166   2.08030
   R10        2.68113   0.03515   0.00000   0.06429   0.06409   2.74522
   R11        2.65746   0.02445   0.00000   0.04342   0.04341   2.70087
   R12        2.67357   0.02471   0.00000   0.04377   0.04378   2.71736
   R13        2.64249  -0.00373   0.00000  -0.00705  -0.00703   2.63545
   R14        2.06024   0.00628   0.00000   0.01364   0.01364   2.07388
   R15        2.63354   0.04293   0.00000   0.07183   0.07183   2.70537
   R16        2.05824   0.00670   0.00000   0.01450   0.01450   2.07273
   R17        2.64345   0.01352   0.00000   0.02360   0.02359   2.66704
   R18        2.70996   0.02246   0.00000   0.04281   0.04281   2.75276
   R19        2.06027   0.00615   0.00000   0.01336   0.01336   2.07363
   R20        2.19288   0.10313   0.00000   0.06788   0.06788   2.26076
    A1        2.04461  -0.00129   0.00000  -0.00383  -0.00417   2.04045
    A2        2.13679  -0.02091   0.00000  -0.06012  -0.06042   2.07637
    A3        2.10166   0.02224   0.00000   0.06444   0.06460   2.16626
    A4        2.10534  -0.03547   0.00000  -0.10321  -0.10257   2.00277
    A5        2.09018   0.02497   0.00000   0.07626   0.07571   2.16590
    A6        2.08953  -0.00590   0.00000  -0.01125  -0.01109   2.07844
    A7        2.10334  -0.01904   0.00000  -0.06467  -0.06450   2.03884
    A8        2.11075  -0.00250   0.00000  -0.01173  -0.01266   2.09809
    A9        2.06908   0.01057   0.00000   0.04361   0.04410   2.11318
   A10        2.10285  -0.00810   0.00000  -0.03228  -0.03190   2.07095
   A11        2.08890  -0.00542   0.00000  -0.01797  -0.01884   2.07006
   A12        2.10014   0.00902   0.00000   0.02623   0.02674   2.12688
   A13        2.09386  -0.00359   0.00000  -0.00816  -0.00781   2.08605
   A14        2.06776  -0.00410   0.00000  -0.01101  -0.01133   2.05644
   A15        2.15798   0.00473   0.00000   0.01421   0.01412   2.17210
   A16        2.05724  -0.00057   0.00000  -0.00251  -0.00267   2.05457
   A17        2.12039   0.00334   0.00000   0.00799   0.00790   2.12829
   A18        2.10724  -0.00651   0.00000  -0.02355  -0.02358   2.08366
   A19        2.05522   0.00321   0.00000   0.01599   0.01596   2.07118
   A20        2.09648   0.00134   0.00000   0.00229   0.00225   2.09873
   A21        2.08180   0.00162   0.00000   0.00816   0.00818   2.08999
   A22        2.10488  -0.00296   0.00000  -0.01044  -0.01042   2.09446
   A23        2.08484  -0.00068   0.00000  -0.00158  -0.00167   2.08317
   A24        2.10000   0.00099   0.00000   0.00271   0.00274   2.10273
   A25        2.09825  -0.00030   0.00000  -0.00100  -0.00098   2.09727
   A26        2.11248   0.00022   0.00000   0.00268   0.00259   2.11507
   A27        2.09177  -0.00154   0.00000  -0.00713  -0.00709   2.08467
   A28        2.07877   0.00134   0.00000   0.00458   0.00461   2.08338
   A29        3.12548   0.00707   0.00000   0.08599   0.08599   3.21147
   A30        3.13740   0.00058   0.00000   0.00492   0.00492   3.14232
   A31        3.14451  -0.00417   0.00000  -0.05065  -0.05065   3.09386
   A32        3.14328  -0.00020   0.00000  -0.00165  -0.00165   3.14163
    D1       -3.13295  -0.00147   0.00000  -0.01812  -0.01998   3.13026
    D2       -0.00783   0.00103   0.00000   0.01373   0.01254   0.00471
    D3       -3.10839   0.00508   0.00000   0.06017   0.05896  -3.04943
    D4        0.05538   0.00201   0.00000   0.02303   0.02241   0.07779
    D5        0.05056   0.00223   0.00000   0.02597   0.02524   0.07580
    D6       -3.06885  -0.00085   0.00000  -0.01117  -0.01131  -3.08016
    D7       -0.03922  -0.00545   0.00000  -0.06060  -0.06104  -0.10026
    D8        3.08447  -0.00347   0.00000  -0.03930  -0.03809   3.04638
    D9        0.04280   0.00603   0.00000   0.06625   0.06791   0.11071
   D10       -3.13274   0.00478   0.00000   0.05242   0.05388  -3.07886
   D11       -3.08075   0.00389   0.00000   0.04421   0.04492  -3.03583
   D12        0.02689   0.00264   0.00000   0.03037   0.03089   0.05778
   D13        0.00082  -0.00174   0.00000  -0.02324  -0.02155  -0.02073
   D14        3.11676  -0.00140   0.00000  -0.01869  -0.01752   3.09924
   D15       -3.10616  -0.00083   0.00000  -0.01062  -0.00933  -3.11549
   D16        0.00978  -0.00049   0.00000  -0.00607  -0.00530   0.00448
   D17       -0.04681  -0.00156   0.00000  -0.01999  -0.01948  -0.06629
   D18        3.07389   0.00141   0.00000   0.01521   0.01479   3.08869
   D19        3.12034  -0.00210   0.00000  -0.02504  -0.02394   3.09640
   D20       -0.04214   0.00087   0.00000   0.01016   0.01034  -0.03180
   D21       -3.07421  -0.00140   0.00000  -0.01568  -0.01534  -3.08955
   D22        0.04762  -0.00072   0.00000  -0.00802  -0.00766   0.03995
   D23        0.04166  -0.00108   0.00000  -0.01126  -0.01143   0.03023
   D24       -3.11970  -0.00040   0.00000  -0.00360  -0.00375  -3.12346
   D25        3.12838   0.00325   0.00000   0.03938   0.03899  -3.11582
   D26        0.01548   0.00166   0.00000   0.02147   0.02132   0.03679
   D27        0.00884   0.00023   0.00000   0.00255   0.00258   0.01142
   D28       -3.10406  -0.00135   0.00000  -0.01536  -0.01510  -3.11916
   D29        0.02622  -0.00130   0.00000  -0.01458  -0.01472   0.01151
   D30       -3.10894  -0.00146   0.00000  -0.01650  -0.01656  -3.12550
   D31        3.13995   0.00009   0.00000   0.00219   0.00221  -3.14103
   D32        0.00479  -0.00007   0.00000   0.00027   0.00037   0.00515
   D33       -0.02752   0.00113   0.00000   0.01352   0.01362  -0.01390
   D34        3.12881   0.00025   0.00000   0.00343   0.00358   3.13240
   D35        3.10756   0.00131   0.00000   0.01554   0.01554   3.12310
   D36       -0.01930   0.00043   0.00000   0.00545   0.00550  -0.01380
   D37       -0.00625  -0.00016   0.00000  -0.00111  -0.00091  -0.00717
   D38       -3.12822  -0.00081   0.00000  -0.00858  -0.00845  -3.13667
   D39        3.12062   0.00073   0.00000   0.00900   0.00913   3.12974
   D40       -0.00135   0.00008   0.00000   0.00153   0.00159   0.00024
         Item               Value     Threshold  Converged?
 Maximum Force            0.103126     0.000450     NO 
 RMS     Force            0.019831     0.000300     NO 
 Maximum Displacement     0.192418     0.001800     NO 
 RMS     Displacement     0.048750     0.001200     NO 
 Predicted change in Energy=-3.048596D-02
 GradGradGradGradGradGradGradGradGradGradGradGradGradGradGradGradGradGrad

                          Input orientation:                          
 ---------------------------------------------------------------------
 Center     Atomic      Atomic             Coordinates (Angstroms)
 Number     Number       Type             X           Y           Z
 ---------------------------------------------------------------------
      1          7           0        1.136751   -2.357022    0.017158
      2          6           0        2.321396   -2.187715    0.059845
      3          6           0        3.770328   -2.069154    0.197480
      4          6           0        4.478206   -3.241613    0.567666
      5          6           0        5.897960   -3.076604    0.675213
      6          6           0        6.581615   -1.900934    0.329856
      7          6           0        5.851228   -0.722757   -0.036567
      8          6           0        4.400160   -0.785087   -0.066192
      9          6           0        3.684846    0.424494   -0.371110
     10          6           0        4.344176    1.622438   -0.645300
     11          6           0        5.774831    1.675022   -0.643486
     12          6           0        6.509733    0.507641   -0.345128
     13          7           0        7.037895    3.944545   -1.184375
     14          6           0        6.468756    2.920921   -0.940431
     15          1           0        6.509038   -3.917002    1.046482
     16          1           0        7.680176   -1.847771    0.376814
     17          1           0        2.587485    0.413483   -0.379931
     18          1           0        3.762328    2.527432   -0.858620
     19          1           0        7.606261    0.548853   -0.339113
 ---------------------------------------------------------------------
                    Distance matrix (angstroms):
                    1          2          3          4          5
     1  N    0.000000
     2  C    1.197443   0.000000
     3  C    2.655392   1.460275   0.000000
     4  C    3.500126   2.453653   1.418728   0.000000
     5  C    4.860035   3.736390   2.402083   1.433351   0.000000
     6  C    5.472873   4.278389   2.819425   2.505655   1.403160
     7  C    4.989990   3.822971   2.489520   2.931710   2.459555
     8  C    3.623226   2.510878   1.454318   2.538186   2.836219
     9  C    3.792145   2.977977   2.559078   3.866660   4.272043
    10  C    5.153884   4.371056   3.829808   5.014802   5.122401
    11  C    6.181069   5.228921   4.329447   5.226990   4.932756
    12  C    6.099711   4.997110   3.799821   4.360872   3.776530
    13  N    8.716474   7.835690   6.982198   7.827038   7.352146
    14  C    7.563328   6.655772   5.785949   6.649321   6.237501
    15  H    5.688102   4.636834   3.411140   2.193101   1.103415
    16  H    6.573058   5.378899   3.920215   3.497404   2.185261
    17  H    3.152459   2.651496   2.809983   4.222853   4.924762
    18  H    5.614136   5.015224   4.716356   5.985704   6.190217
    19  H    7.101098   5.964710   4.675070   4.997461   4.134137
                    6          7          8          9         10
     6  C    0.000000
     7  C    1.433817   0.000000
     8  C    2.482078   1.452708   0.000000
     9  C    3.780243   2.474129   1.437962   0.000000
    10  C    4.286165   2.853367   2.476828   1.394621   0.000000
    11  C    3.792856   2.474577   2.876652   2.450724   1.431622
    12  C    2.502399   1.429237   2.489829   2.826230   2.454080
    13  N    6.055634   4.950692   5.529683   4.929006   3.597069
    14  C    4.987649   3.804563   4.333345   3.782385   2.507390
    15  H    2.140877   3.436409   3.936280   5.369750   6.183377
    16  H    1.100849   2.186685   3.476213   4.656742   4.920972
    17  H    4.670481   3.472889   2.195631   1.097451   2.148943
    18  H    5.382497   3.950064   3.465192   2.160097   1.096844
    19  H    2.738407   2.188303   3.483241   3.923517   3.447830
                   11         12         13         14         15
    11  C    0.000000
    12  C    1.411338   0.000000
    13  N    2.653040   3.577093   0.000000
    14  C    1.456699   2.485957   1.196341   0.000000
    15  H    5.887766   4.638324   8.189037   7.120859   0.000000
    16  H    4.132968   2.727473   6.033304   5.093437   2.470170
    17  H    3.438040   3.923532   5.737741   4.654640   6.013844
    18  H    2.196145   3.448400   3.583805   2.736107   7.259790
    19  H    2.171413   1.097319   3.545170   2.698556   4.802878
                   16         17         18         19
    16  H    0.000000
    17  H    5.623294   0.000000
    18  H    6.001519   2.465397   0.000000
    19  H    2.502364   5.020767   4.354364   0.000000
 Stoichiometry    C12H5N2(1-)
 Framework group  C1[X(C12H5N2)]
 Deg. of freedom    51
 Full point group                 C1      NOp   1
 Largest Abelian subgroup         C1      NOp   1
 Largest concise Abelian subgroup C1      NOp   1
                         Standard orientation:                         
 ---------------------------------------------------------------------
 Center     Atomic      Atomic             Coordinates (Angstroms)
 Number     Number       Type             X           Y           Z
 ---------------------------------------------------------------------
      1          7           0        3.570578   -2.335674   -0.070691
      2          6           0        2.859884   -1.371949   -0.066357
      3          6           0        2.082423   -0.137575   -0.000956
      4          6           0        2.810619    1.079936    0.012674
      5          6           0        2.001933    2.262314    0.062724
      6          6           0        0.601194    2.261335   -0.019664
      7          6           0       -0.120259    1.022268   -0.026704
      8          6           0        0.630710   -0.220138    0.026496
      9          6           0       -0.113200   -1.449294    0.085741
     10          6           0       -1.507669   -1.468827    0.079307
     11          6           0       -2.245697   -0.244787   -0.001827
     12          6           0       -1.548558    0.981064   -0.058062
     13          7           0       -4.898367   -0.273478   -0.035641
     14          6           0       -3.702197   -0.260067   -0.020440
     15          1           0        2.493723    3.244471    0.167770
     16          1           0        0.032208    3.203617   -0.034754
     17          1           0        0.426446   -2.402856    0.148208
     18          1           0       -2.038828   -2.426493    0.141070
     19          1           0       -2.114120    1.919650   -0.115554
 ---------------------------------------------------------------------
 Rotational constants (GHZ):      1.4394293      0.4537437      0.3452311
 Standard basis: STO-3G (5D, 7F)
 There are    75 symmetry adapted cartesian basis functions of A   symmetry.
 There are    75 symmetry adapted basis functions of A   symmetry.
    75 basis functions,   225 primitive gaussians,    75 cartesian basis functions
    46 alpha electrons       46 beta electrons
       nuclear repulsion energy       693.5774700174 Hartrees.
 NAtoms=   19 NActive=   19 NUniq=   19 SFac= 1.00D+00 NAtFMM=   60 NAOKFM=F Big=F
 Integral buffers will be    131072 words long.
 Raffenetti 2 integral format.
 Two-electron integral symmetry is turned on.
 One-electron integrals computed using PRISM.
 NBasis=    75 RedAO= T EigKep=  1.74D-01  NBF=    75
 NBsUse=    75 1.00D-06 EigRej= -1.00D+00 NBFU=    75
 Initial guess from the checkpoint file:  "/tmp/bnp.472689.sequoia/Gau-19355.chk"
 B after Tr=     0.000000    0.000000    0.000000
         Rot=    0.999999   -0.000007   -0.000062    0.001300 Ang=  -0.15 deg.
 ExpMin= 1.69D-01 ExpMax= 9.91D+01 ExpMxC= 9.91D+01 IAcc=1 IRadAn=         1 AccDes= 0.00D+00
 Harris functional with IExCor=  402 and IRadAn=       1 diagonalized for initial guess.
 HarFok:  IExCor=  402 AccDes= 0.00D+00 IRadAn=         1 IDoV= 1 UseB2=F ITyADJ=14
 ICtDFT=  3500011 ScaDFX=  1.000000  1.000000  1.000000  1.000000
 FoFCou: FMM=F IPFlag=           0 FMFlag=      100000 FMFlg1=           0
         NFxFlg=           0 DoJE=T BraDBF=F KetDBF=T FulRan=T
         wScrn=  0.000000 ICntrl=     500 IOpCl=  0 I1Cent=   200000004 NGrid=           0
         NMat0=    1 NMatS0=      1 NMatT0=    0 NMatD0=    1 NMtDS0=    0 NMtDT0=    0
 Petite list used in FoFCou.
 Keep R1 ints in memory in canonical form, NReq=4993994.
 Requested convergence on RMS density matrix=1.00D-08 within 128 cycles.
 Requested convergence on MAX density matrix=1.00D-06.
 Requested convergence on             energy=1.00D-06.
 No special actions if energy rises.
 Integral accuracy reduced to 1.0D-05 until final iterations.
 Initial convergence to 1.0D-05 achieved.  Increase integral accuracy.
 SCF Done:  E(RB3LYP) =  -562.517018404     A.U. after   18 cycles
            NFock= 18  Conv=0.78D-08     -V/T= 2.0140
 Calling FoFJK, ICntrl=      2127 FMM=F ISym2X=0 I1Cent= 0 IOpClX= 0 NMat=1 NMatS=1 NMatT=0.
 ***** Axes restored to original set *****
 -------------------------------------------------------------------
 Center     Atomic                   Forces (Hartrees/Bohr)
 Number     Number              X              Y              Z
 -------------------------------------------------------------------
      1        7          -0.007347074    0.000109905   -0.001548905
      2        6          -0.001212700    0.001159288    0.000015688
      3        6           0.022006721    0.004900663    0.001215135
      4        6          -0.023743786   -0.025818955    0.000284839
      5        6           0.012684454    0.025216124   -0.002491385
      6        6           0.002561726   -0.019068645    0.004445864
      7        6           0.003011481    0.005753802   -0.001728557
      8        6          -0.008582048    0.002756712    0.000776787
      9        6           0.004606648    0.010438473   -0.000647746
     10        6          -0.011480877   -0.007348852    0.000947378
     11        6           0.007922539   -0.003884228    0.001431898
     12        6          -0.004678220    0.003698131   -0.000510283
     13        7           0.004080512    0.007266620   -0.001744877
     14        6          -0.003452944   -0.005163709    0.001268016
     15        1           0.001802025   -0.000442506    0.001963084
     16        1           0.000336756    0.001978326   -0.003191919
     17        1          -0.001054474   -0.002459568    0.000541663
     18        1           0.001332253    0.001373677   -0.001454518
     19        1           0.001207007   -0.000465259    0.000427838
 -------------------------------------------------------------------
 Cartesian Forces:  Max     0.025818955 RMS     0.008058680

 GradGradGradGradGradGradGradGradGradGradGradGradGradGradGradGradGradGrad
 Berny optimization.
 Using GEDIIS/GDIIS optimizer.
 FormGI is forming the generalized inverse of G from B-inverse, IUseBI=4.
 Internal  Forces:  Max     0.018718871 RMS     0.004199208
 Search for a local minimum.
 Step number   2 out of a maximum of  102
 All quantities printed in internal units (Hartrees-Bohrs-Radians)
 Mixed Optimization -- RFO/linear search
 Update second derivatives using D2CorX and points    1    2
 DE= -2.87D-02 DEPred=-3.05D-02 R= 9.41D-01
 TightC=F SS=  1.41D+00  RLast= 3.41D-01 DXNew= 5.0454D-01 1.0243D+00
 Trust test= 9.41D-01 RLast= 3.41D-01 DXMaxT set to 5.05D-01
 ITU=  1  0
 Use linear search instead of GDIIS.
     Eigenvalues ---    0.01667   0.01722   0.01871   0.01899   0.01936
     Eigenvalues ---    0.01956   0.02004   0.02034   0.02044   0.02057
     Eigenvalues ---    0.02102   0.02127   0.02131   0.02148   0.02188
     Eigenvalues ---    0.02275   0.04861   0.04862   0.15869   0.15991
     Eigenvalues ---    0.15999   0.15999   0.16076   0.21228   0.22421
     Eigenvalues ---    0.23142   0.23528   0.24549   0.24865   0.24995
     Eigenvalues ---    0.25006   0.34782   0.34786   0.34900   0.34947
     Eigenvalues ---    0.35259   0.38808   0.40200   0.40441   0.40554
     Eigenvalues ---    0.40901   0.43155   0.43847   0.44126   0.45103
     Eigenvalues ---    0.45387   0.45958   0.46408   0.49729   1.26815
     Eigenvalues ---    1.32859
 RFO step:  Lambda=-6.18623468D-03 EMin= 1.66726761D-02
 Quartic linear search produced a step of  0.28834.
 Iteration  1 RMS(Cart)=  0.08035743 RMS(Int)=  0.00874075
 Iteration  2 RMS(Cart)=  0.01100367 RMS(Int)=  0.00079335
 Iteration  3 RMS(Cart)=  0.00018859 RMS(Int)=  0.00078557
 Iteration  4 RMS(Cart)=  0.00000009 RMS(Int)=  0.00078557
 Variable       Old X    -DE/DX   Delta X   Delta X   Delta X     New X
                                 (Linear)    (Quad)   (Total)
    R1        2.26284   0.00731   0.01907  -0.00730   0.01178   2.27462
    R2        2.75952   0.00854   0.01548   0.01402   0.02950   2.78902
    R3        2.68101   0.00634   0.01170   0.00909   0.02126   2.70227
    R4        2.74826   0.00171   0.01825  -0.00892   0.00954   2.75781
    R5        2.70864   0.01872   0.02440   0.03076   0.05542   2.76406
    R6        2.65159  -0.00763   0.00511  -0.02541  -0.02057   2.63102
    R7        2.08515   0.00200   0.00916  -0.00033   0.00883   2.09398
    R8        2.70952   0.00571   0.01583   0.00236   0.01772   2.72724
    R9        2.08030   0.00030   0.00625  -0.00404   0.00221   2.08251
   R10        2.74522   0.00145   0.01848  -0.01141   0.00683   2.75205
   R11        2.70087  -0.00013   0.01252  -0.01060   0.00184   2.70271
   R12        2.71736   0.00206   0.01262  -0.00429   0.00839   2.72574
   R13        2.63545  -0.00621  -0.00203  -0.01537  -0.01732   2.61813
   R14        2.07388   0.00107   0.00393   0.00067   0.00460   2.07848
   R15        2.70537   0.00686   0.02071   0.00234   0.02308   2.72846
   R16        2.07273   0.00071   0.00418  -0.00085   0.00333   2.07606
   R17        2.66704  -0.00293   0.00680  -0.01340  -0.00665   2.66040
   R18        2.75276   0.00219   0.01234  -0.00311   0.00923   2.76199
   R19        2.07363   0.00119   0.00385   0.00117   0.00502   2.07866
   R20        2.26076   0.00851   0.01957  -0.00654   0.01303   2.27379
    A1        2.04045  -0.00114  -0.00120  -0.00497  -0.00648   2.03397
    A2        2.07637  -0.01014  -0.01742  -0.03644  -0.05407   2.02231
    A3        2.16626   0.01127   0.01863   0.04114   0.05980   2.22606
    A4        2.00277  -0.01831  -0.02958  -0.06670  -0.09568   1.90709
    A5        2.16590   0.01005   0.02183   0.03532   0.05546   2.22136
    A6        2.07844  -0.00395  -0.00320  -0.01626  -0.01941   2.05903
    A7        2.03884  -0.00611  -0.01860  -0.01927  -0.03771   2.00113
    A8        2.09809   0.00012  -0.00365  -0.00228  -0.00738   2.09070
    A9        2.11318   0.00289   0.01271   0.01417   0.02770   2.14087
   A10        2.07095  -0.00302  -0.00920  -0.01192  -0.02050   2.05045
   A11        2.07006  -0.00229  -0.00543  -0.01138  -0.01802   2.05204
   A12        2.12688   0.00307   0.00771   0.01219   0.02071   2.14759
   A13        2.08605  -0.00077  -0.00225  -0.00082  -0.00269   2.08336
   A14        2.05644  -0.00106  -0.00327  -0.00421  -0.00806   2.04837
   A15        2.17210   0.00078   0.00407   0.00222   0.00613   2.17822
   A16        2.05457   0.00027  -0.00077   0.00156   0.00047   2.05504
   A17        2.12829   0.00057   0.00228   0.00082   0.00291   2.13120
   A18        2.08366  -0.00289  -0.00680  -0.01531  -0.02231   2.06135
   A19        2.07118   0.00232   0.00460   0.01479   0.01918   2.09036
   A20        2.09873  -0.00057   0.00065  -0.00333  -0.00270   2.09603
   A21        2.08999   0.00236   0.00236   0.01535   0.01771   2.10770
   A22        2.09446  -0.00179  -0.00300  -0.01200  -0.01500   2.07946
   A23        2.08317   0.00007  -0.00048   0.00112   0.00046   2.08363
   A24        2.10273  -0.00065   0.00079  -0.00411  -0.00327   2.09946
   A25        2.09727   0.00059  -0.00028   0.00303   0.00279   2.10006
   A26        2.11507   0.00045   0.00075   0.00136   0.00182   2.11689
   A27        2.08467  -0.00085  -0.00205  -0.00392  -0.00587   2.07880
   A28        2.08338   0.00040   0.00133   0.00268   0.00411   2.08749
   A29        3.21147  -0.00308   0.02479  -0.21682  -0.19203   3.01945
   A30        3.14232  -0.00007   0.00142  -0.00340  -0.00199   3.14033
   A31        3.09386   0.00234  -0.01460   0.15722   0.14261   3.23648
   A32        3.14163  -0.00002  -0.00048   0.00001  -0.00046   3.14117
    D1        3.13026  -0.00056  -0.00576  -0.00807  -0.01607   3.11419
    D2        0.00471   0.00019   0.00362   0.01268   0.01446   0.01917
    D3       -3.04943   0.00137   0.01700   0.05044   0.06582  -2.98361
    D4        0.07779   0.00040   0.00646   0.01315   0.01899   0.09678
    D5        0.07580   0.00069   0.00728   0.02957   0.03587   0.11167
    D6       -3.08016  -0.00029  -0.00326  -0.00772  -0.01096  -3.09113
    D7       -0.10026  -0.00218  -0.01760  -0.06961  -0.08752  -0.18778
    D8        3.04638  -0.00060  -0.01098  -0.01755  -0.02684   3.01954
    D9        0.11071   0.00274   0.01958   0.08069   0.10240   0.21311
   D10       -3.07886   0.00253   0.01554   0.07962   0.09738  -2.98148
   D11       -3.03583   0.00120   0.01295   0.02971   0.04348  -2.99235
   D12        0.05778   0.00099   0.00891   0.02864   0.03846   0.09625
   D13       -0.02073  -0.00051  -0.00621  -0.02778  -0.03154  -0.05227
   D14        3.09924  -0.00056  -0.00505  -0.02828  -0.03163   3.06762
   D15       -3.11549  -0.00046  -0.00269  -0.02743  -0.02808   3.13961
   D16        0.00448  -0.00051  -0.00153  -0.02794  -0.02816  -0.02369
   D17       -0.06629  -0.00052  -0.00562  -0.02137  -0.02612  -0.09242
   D18        3.08869   0.00038   0.00427   0.01335   0.01727   3.10595
   D19        3.09640  -0.00052  -0.00690  -0.02105  -0.02635   3.07005
   D20       -0.03180   0.00039   0.00298   0.01367   0.01704  -0.01476
   D21       -3.08955  -0.00053  -0.00442  -0.02174  -0.02575  -3.11529
   D22        0.03995  -0.00023  -0.00221  -0.01084  -0.01259   0.02736
   D23        0.03023  -0.00061  -0.00329  -0.02237  -0.02601   0.00422
   D24       -3.12346  -0.00031  -0.00108  -0.01147  -0.01286  -3.13631
   D25       -3.11582   0.00127   0.01124   0.04870   0.05922  -3.05660
   D26        0.03679   0.00044   0.00615   0.01681   0.02281   0.05960
   D27        0.01142   0.00029   0.00074   0.01140   0.01216   0.02357
   D28       -3.11916  -0.00055  -0.00435  -0.02048  -0.02425   3.13978
   D29        0.01151  -0.00076  -0.00424  -0.02815  -0.03259  -0.02108
   D30       -3.12550  -0.00089  -0.00478  -0.03391  -0.03883   3.11886
   D31       -3.14103   0.00003   0.00064   0.00333   0.00415  -3.13688
   D32        0.00515  -0.00009   0.00011  -0.00243  -0.00209   0.00306
   D33       -0.01390   0.00053   0.00393   0.01924   0.02336   0.00946
   D34        3.13240   0.00023   0.00103   0.00900   0.01026  -3.14053
   D35        3.12310   0.00067   0.00448   0.02508   0.02959  -3.13050
   D36       -0.01380   0.00037   0.00159   0.01484   0.01649   0.00269
   D37       -0.00717   0.00013  -0.00026   0.00601   0.00595  -0.00121
   D38       -3.13667  -0.00016  -0.00244  -0.00484  -0.00720   3.13931
   D39        3.12974   0.00042   0.00263   0.01619   0.01904  -3.13440
   D40        0.00024   0.00013   0.00046   0.00535   0.00589   0.00613
         Item               Value     Threshold  Converged?
 Maximum Force            0.018719     0.000450     NO 
 RMS     Force            0.004199     0.000300     NO 
 Maximum Displacement     0.475220     0.001800     NO 
 RMS     Displacement     0.085245     0.001200     NO 
 Predicted change in Energy=-4.523612D-03
 GradGradGradGradGradGradGradGradGradGradGradGradGradGradGradGradGradGrad

                          Input orientation:                          
 ---------------------------------------------------------------------
 Center     Atomic      Atomic             Coordinates (Angstroms)
 Number     Number       Type             X           Y           Z
 ---------------------------------------------------------------------
      1          7           0        1.175057   -2.108222   -0.234318
      2          6           0        2.341920   -2.175520    0.053328
      3          6           0        3.803386   -2.100039    0.244800
      4          6           0        4.465540   -3.317978    0.595539
      5          6           0        5.902768   -3.070822    0.708341
      6          6           0        6.594732   -1.926990    0.319408
      7          6           0        5.865702   -0.728325   -0.019010
      8          6           0        4.411079   -0.795899    0.000497
      9          6           0        3.678767    0.411582   -0.293145
     10          6           0        4.315595    1.599617   -0.613322
     11          6           0        5.757787    1.664682   -0.636074
     12          6           0        6.506102    0.509109   -0.341732
     13          7           0        6.992155    3.945531   -1.248713
     14          6           0        6.434068    2.916101   -0.971965
     15          1           0        6.542790   -3.890863    1.090131
     16          1           0        7.695376   -1.874704    0.302310
     17          1           0        2.579849    0.366860   -0.281769
     18          1           0        3.735488    2.501017   -0.853925
     19          1           0        7.605008    0.554032   -0.360119
 ---------------------------------------------------------------------
                    Distance matrix (angstroms):
                    1          2          3          4          5
     1  N    0.000000
     2  C    1.203676   0.000000
     3  C    2.671654   1.475887   0.000000
     4  C    3.602700   2.471633   1.429980   0.000000
     5  C    4.915938   3.729644   2.358960   1.462680   0.000000
     6  C    5.450902   4.268370   2.797700   2.558232   1.392277
     7  C    4.894141   3.810072   2.490852   3.007395   2.453101
     8  C    3.499881   2.487482   1.459368   2.591896   2.810952
     9  C    3.552666   2.932627   2.571606   3.913872   4.251622
    10  C    4.873878   4.311783   3.832256   5.066219   5.106752
    11  C    5.949590   5.185612   4.332291   5.292794   4.924781
    12  C    5.939865   4.970284   3.802150   4.437225   3.779229
    13  N    8.456687   7.796619   6.996267   7.908452   7.365191
    14  C    7.310618   6.612223   5.793329   6.722790   6.240909
    15  H    5.809004   4.654533   3.380232   2.210834   1.108089
    16  H    6.546530   5.367679   3.898932   3.549769   2.192944
    17  H    2.846352   2.575382   2.803552   4.231256   4.882598
    18  H    5.308936   4.963379   4.730911   6.041078   6.179252
    19  H    6.960437   5.943189   4.675719   5.075628   4.144731
                    6          7          8          9         10
     6  C    0.000000
     7  C    1.443195   0.000000
     8  C    2.479801   1.456322   0.000000
     9  C    3.787743   2.481375   1.442400   0.000000
    10  C    4.301327   2.859258   2.474751   1.385456   0.000000
    11  C    3.809663   2.473640   2.876335   2.451567   1.443838
    12  C    2.525776   1.430212   2.491845   2.829434   2.461969
    13  N    6.091261   4.962459   5.541087   4.937656   3.615385
    14  C    5.014877   3.809593   4.337869   3.784850   2.519857
    15  H    2.110334   3.419107   3.912837   5.350432   6.165025
    16  H    1.102017   2.182920   3.470089   4.659916   4.932769
    17  H    4.662880   3.473514   2.187484   1.099887   2.154630
    18  H    5.399929   3.957719   3.472192   2.164123   1.098606
    19  H    2.763673   2.187689   3.486193   3.929395   3.460867
                   11         12         13         14         15
    11  C    0.000000
    12  C    1.407822   0.000000
    13  N    2.664820   3.587180   0.000000
    14  C    1.461584   2.489175   1.203237   0.000000
    15  H    5.870272   4.627238   8.190311   7.113284   0.000000
    16  H    4.142713   2.740753   6.064267   5.115319   2.452348
    17  H    3.450965   3.929287   5.762839   4.672259   5.976221
    18  H    2.199229   3.450557   3.584461   2.732867   7.246822
    19  H    2.172998   1.099977   3.559137   2.706441   4.794646
                   16         17         18         19
    16  H    0.000000
    17  H    5.615547   0.000000
    18  H    6.013695   2.493489   0.000000
    19  H    2.519075   5.029254   4.359791   0.000000
 Stoichiometry    C12H5N2(1-)
 Framework group  C1[X(C12H5N2)]
 Deg. of freedom    51
 Full point group                 C1      NOp   1
 Largest Abelian subgroup         C1      NOp   1
 Largest concise Abelian subgroup C1      NOp   1
                         Standard orientation:                         
 ---------------------------------------------------------------------
 Center     Atomic      Atomic             Coordinates (Angstroms)
 Number     Number       Type             X           Y           Z
 ---------------------------------------------------------------------
      1          7           0        3.256523   -2.514188   -0.213940
      2          6           0        2.821416   -1.404493   -0.046324
      3          6           0        2.106402   -0.116408    0.042197
      4          6           0        2.911967    1.064742    0.014072
      5          6           0        2.045327    2.241560    0.072955
      6          6           0        0.660002    2.276137   -0.061632
      7          6           0       -0.095168    1.046948   -0.021328
      8          6           0        0.650307   -0.198704    0.094828
      9          6           0       -0.102324   -1.426172    0.180782
     10          6           0       -1.486632   -1.446411    0.128145
     11          6           0       -2.224726   -0.211204    0.009198
     12          6           0       -1.524206    1.007763   -0.063977
     13          7           0       -4.887520   -0.239337   -0.090809
     14          6           0       -3.685201   -0.227448   -0.045363
     15          1           0        2.524416    3.235089    0.178951
     16          1           0        0.094492    3.217715   -0.151476
     17          1           0        0.454760   -2.370623    0.266928
     18          1           0       -2.036879   -2.396163    0.174343
     19          1           0       -2.082803    1.950790   -0.156822
 ---------------------------------------------------------------------
 Rotational constants (GHZ):      1.3896242      0.4644283      0.3489911
 Standard basis: STO-3G (5D, 7F)
 There are    75 symmetry adapted cartesian basis functions of A   symmetry.
 There are    75 symmetry adapted basis functions of A   symmetry.
    75 basis functions,   225 primitive gaussians,    75 cartesian basis functions
    46 alpha electrons       46 beta electrons
       nuclear repulsion energy       693.3540283174 Hartrees.
 NAtoms=   19 NActive=   19 NUniq=   19 SFac= 1.00D+00 NAtFMM=   60 NAOKFM=F Big=F
 Integral buffers will be    131072 words long.
 Raffenetti 2 integral format.
 Two-electron integral symmetry is turned on.
 One-electron integrals computed using PRISM.
 NBasis=    75 RedAO= T EigKep=  1.77D-01  NBF=    75
 NBsUse=    75 1.00D-06 EigRej= -1.00D+00 NBFU=    75
 Initial guess from the checkpoint file:  "/tmp/bnp.472689.sequoia/Gau-19355.chk"
 B after Tr=     0.000000    0.000000    0.000000
         Rot=    0.999945    0.000952   -0.000631    0.010473 Ang=   1.21 deg.
 ExpMin= 1.69D-01 ExpMax= 9.91D+01 ExpMxC= 9.91D+01 IAcc=1 IRadAn=         1 AccDes= 0.00D+00
 Harris functional with IExCor=  402 and IRadAn=       1 diagonalized for initial guess.
 HarFok:  IExCor=  402 AccDes= 0.00D+00 IRadAn=         1 IDoV= 1 UseB2=F ITyADJ=14
 ICtDFT=  3500011 ScaDFX=  1.000000  1.000000  1.000000  1.000000
 FoFCou: FMM=F IPFlag=           0 FMFlag=      100000 FMFlg1=           0
         NFxFlg=           0 DoJE=T BraDBF=F KetDBF=T FulRan=T
         wScrn=  0.000000 ICntrl=     500 IOpCl=  0 I1Cent=   200000004 NGrid=           0
         NMat0=    1 NMatS0=      1 NMatT0=    0 NMatD0=    1 NMtDS0=    0 NMtDT0=    0
 Petite list used in FoFCou.
 Keep R1 ints in memory in canonical form, NReq=4993994.
 Requested convergence on RMS density matrix=1.00D-08 within 128 cycles.
 Requested convergence on MAX density matrix=1.00D-06.
 Requested convergence on             energy=1.00D-06.
 No special actions if energy rises.
 Integral accuracy reduced to 1.0D-05 until final iterations.
 Initial convergence to 1.0D-05 achieved.  Increase integral accuracy.
 SCF Done:  E(RB3LYP) =  -562.519089076     A.U. after   19 cycles
            NFock= 19  Conv=0.39D-08     -V/T= 2.0141
 Calling FoFJK, ICntrl=      2127 FMM=F ISym2X=0 I1Cent= 0 IOpClX= 0 NMat=1 NMatS=1 NMatT=0.
 ***** Axes restored to original set *****
 -------------------------------------------------------------------
 Center     Atomic                   Forces (Hartrees/Bohr)
 Number     Number              X              Y              Z
 -------------------------------------------------------------------
      1        7           0.004891259   -0.005682948    0.006611807
      2        6          -0.005601371    0.013161428   -0.011832162
      3        6          -0.002892109   -0.003018948    0.003178942
      4        6          -0.001739941   -0.001277532    0.002046038
      5        6           0.012378979    0.000419942   -0.000437822
      6        6          -0.001860350   -0.000333328    0.001836726
      7        6          -0.001973692    0.001738845   -0.001439024
      8        6           0.000205031   -0.000711701   -0.000507946
      9        6          -0.001579637   -0.001360568   -0.000047774
     10        6           0.001696256    0.001189102    0.000161176
     11        6           0.000150898    0.000432846   -0.000543348
     12        6          -0.000821351   -0.001314989    0.000083798
     13        7          -0.003454715   -0.006216373    0.001678248
     14        6           0.002242817    0.004830388   -0.001075952
     15        1          -0.001366611   -0.000603798   -0.000806029
     16        1          -0.001078777   -0.000818469    0.000615120
     17        1           0.000815819   -0.000054095    0.000171314
     18        1           0.000668497   -0.000410095    0.000179532
     19        1          -0.000681002    0.000030291    0.000127358
 -------------------------------------------------------------------
 Cartesian Forces:  Max     0.013161428 RMS     0.003633980

 GradGradGradGradGradGradGradGradGradGradGradGradGradGradGradGradGradGrad
 Berny optimization.
 Using GEDIIS/GDIIS optimizer.
 FormGI is forming the generalized inverse of G from B-inverse, IUseBI=4.
 Internal  Forces:  Max     0.013740185 RMS     0.002479716
 Search for a local minimum.
 Step number   3 out of a maximum of  102
 All quantities printed in internal units (Hartrees-Bohrs-Radians)
 Mixed Optimization -- RFO/linear search
 Update second derivatives using D2CorX and points    2    3
 DE= -2.07D-03 DEPred=-4.52D-03 R= 4.58D-01
 Trust test= 4.58D-01 RLast= 3.79D-01 DXMaxT set to 5.05D-01
 ITU=  0  1  0
 Use linear search instead of GDIIS.
     Eigenvalues ---    0.01668   0.01789   0.01876   0.01918   0.01949
     Eigenvalues ---    0.01966   0.02008   0.02038   0.02056   0.02069
     Eigenvalues ---    0.02124   0.02128   0.02141   0.02174   0.02209
     Eigenvalues ---    0.04285   0.04861   0.04865   0.14882   0.15980
     Eigenvalues ---    0.15998   0.16000   0.16134   0.18034   0.22392
     Eigenvalues ---    0.22755   0.23512   0.24531   0.24839   0.25006
     Eigenvalues ---    0.25859   0.34777   0.34787   0.34898   0.34960
     Eigenvalues ---    0.35219   0.38045   0.39220   0.40363   0.40572
     Eigenvalues ---    0.40915   0.42240   0.43434   0.43915   0.45114
     Eigenvalues ---    0.45361   0.46081   0.46460   0.49754   1.26816
     Eigenvalues ---    1.34441
 RFO step:  Lambda=-4.99374272D-03 EMin= 1.66758473D-02
 Quartic linear search produced a step of -0.34604.
 Iteration  1 RMS(Cart)=  0.04467204 RMS(Int)=  0.01291871
 Iteration  2 RMS(Cart)=  0.02412349 RMS(Int)=  0.00135814
 Iteration  3 RMS(Cart)=  0.00140612 RMS(Int)=  0.00017221
 Iteration  4 RMS(Cart)=  0.00000293 RMS(Int)=  0.00017221
 Iteration  5 RMS(Cart)=  0.00000000 RMS(Int)=  0.00017221
 Variable       Old X    -DE/DX   Delta X   Delta X   Delta X     New X
                                 (Linear)    (Quad)   (Total)
    R1        2.27462  -0.00664  -0.00408   0.00008  -0.00399   2.27063
    R2        2.78902   0.00101  -0.01021   0.02459   0.01438   2.80340
    R3        2.70227   0.00459  -0.00736   0.02305   0.01565   2.71792
    R4        2.75781  -0.00255  -0.00330  -0.00277  -0.00611   2.75169
    R5        2.76406   0.00629  -0.01918   0.05450   0.03532   2.79939
    R6        2.63102  -0.00311   0.00712  -0.02745  -0.02027   2.61075
    R7        2.09398  -0.00062  -0.00306   0.00362   0.00056   2.09454
    R8        2.72724   0.00141  -0.00613   0.01261   0.00653   2.73377
    R9        2.08251  -0.00113  -0.00076  -0.00274  -0.00350   2.07901
   R10        2.75205  -0.00118  -0.00236  -0.00393  -0.00631   2.74574
   R11        2.70271  -0.00201  -0.00064  -0.00695  -0.00757   2.69514
   R12        2.72574  -0.00076  -0.00290   0.00170  -0.00122   2.72452
   R13        2.61813   0.00052   0.00599  -0.01588  -0.00990   2.60823
   R14        2.07848  -0.00083  -0.00159   0.00133  -0.00026   2.07822
   R15        2.72846  -0.00192  -0.00799   0.01150   0.00351   2.73197
   R16        2.07606  -0.00073  -0.00115   0.00010  -0.00105   2.07501
   R17        2.66040  -0.00097   0.00230  -0.01136  -0.00904   2.65135
   R18        2.76199  -0.00189  -0.00319   0.00070  -0.00249   2.75950
   R19        2.07866  -0.00068  -0.00174   0.00206   0.00033   2.07898
   R20        2.27379  -0.00731  -0.00451   0.00084  -0.00367   2.27012
    A1        2.03397   0.00541   0.00224   0.00767   0.00994   2.04391
    A2        2.02231  -0.00372   0.01871  -0.05661  -0.03789   1.98441
    A3        2.22606  -0.00169  -0.02069   0.04833   0.02771   2.25376
    A4        1.90709   0.00153   0.03311  -0.07610  -0.04290   1.86419
    A5        2.22136  -0.00296  -0.01919   0.03910   0.02036   2.24172
    A6        2.05903   0.00008   0.00672  -0.02078  -0.01411   2.04491
    A7        2.00113   0.00290   0.01305  -0.02052  -0.00756   1.99357
    A8        2.09070   0.00110   0.00256  -0.00229   0.00053   2.09123
    A9        2.14087  -0.00151  -0.00958   0.01647   0.00671   2.14758
   A10        2.05045   0.00043   0.00709  -0.01376  -0.00681   2.04365
   A11        2.05204   0.00158   0.00624  -0.01261  -0.00621   2.04583
   A12        2.14759  -0.00143  -0.00717   0.01464   0.00736   2.15494
   A13        2.08336  -0.00014   0.00093  -0.00212  -0.00125   2.08211
   A14        2.04837   0.00058   0.00279  -0.00601  -0.00311   2.04526
   A15        2.17822  -0.00091  -0.00212   0.00266   0.00063   2.17885
   A16        2.05504   0.00035  -0.00016   0.00203   0.00194   2.05699
   A17        2.13120  -0.00064  -0.00101   0.00018  -0.00079   2.13040
   A18        2.06135   0.00019   0.00772  -0.01903  -0.01125   2.05010
   A19        2.09036   0.00046  -0.00664   0.01837   0.01179   2.10215
   A20        2.09603  -0.00008   0.00094  -0.00304  -0.00211   2.09392
   A21        2.10770   0.00039  -0.00613   0.01810   0.01197   2.11967
   A22        2.07946  -0.00030   0.00519  -0.01506  -0.00987   2.06959
   A23        2.08363   0.00014  -0.00016   0.00086   0.00074   2.08437
   A24        2.09946  -0.00069   0.00113  -0.00537  -0.00424   2.09522
   A25        2.10006   0.00055  -0.00096   0.00448   0.00351   2.10357
   A26        2.11689   0.00039  -0.00063   0.00188   0.00130   2.11819
   A27        2.07880  -0.00016   0.00203  -0.00504  -0.00302   2.07579
   A28        2.08749  -0.00022  -0.00142   0.00315   0.00172   2.08921
   A29        3.01945   0.01374   0.06645   0.22717   0.29362   3.31306
   A30        3.14033   0.00017   0.00069  -0.00066   0.00002   3.14035
   A31        3.23648  -0.01001  -0.04935  -0.16593  -0.21528   3.02120
   A32        3.14117   0.00001   0.00016  -0.00002   0.00014   3.14131
    D1        3.11419  -0.00036   0.00556  -0.01638  -0.01038   3.10381
    D2        0.01917  -0.00023  -0.00500   0.00171  -0.00287   0.01630
    D3       -2.98361  -0.00021  -0.02278   0.04062   0.01818  -2.96544
    D4        0.09678   0.00001  -0.00657   0.01472   0.00828   0.10505
    D5        0.11167  -0.00013  -0.01241   0.02407   0.01191   0.12358
    D6       -3.09113   0.00009   0.00379  -0.00182   0.00201  -3.08912
    D7       -0.18778   0.00099   0.03028  -0.04505  -0.01475  -0.20253
    D8        3.01954   0.00052   0.00929  -0.00091   0.00792   3.02746
    D9        0.21311  -0.00111  -0.03543   0.05624   0.02032   0.23344
   D10       -2.98148  -0.00073  -0.03370   0.06535   0.03120  -2.95028
   D11       -2.99235  -0.00073  -0.01505   0.01325  -0.00205  -2.99440
   D12        0.09625  -0.00036  -0.01331   0.02235   0.00882   0.10507
   D13       -0.05227   0.00009   0.01091  -0.01425  -0.00388  -0.05615
   D14        3.06762  -0.00005   0.01094  -0.01913  -0.00857   3.05905
   D15        3.13961  -0.00021   0.00972  -0.02378  -0.01451   3.12511
   D16       -0.02369  -0.00034   0.00975  -0.02867  -0.01920  -0.04288
   D17       -0.09242  -0.00013   0.00904  -0.01677  -0.00788  -0.10030
   D18        3.10595  -0.00028  -0.00598   0.00721   0.00134   3.10729
[...]
 ! D14   D(5,6,7,12)          -179.9807         -DE/DX =    0.0                 !
 ! D15   D(16,6,7,8)          -180.004          -DE/DX =    0.0                 !
 ! D16   D(16,6,7,12)            0.0056         -DE/DX =    0.0                 !
 ! D17   D(6,7,8,3)              0.0253         -DE/DX =    0.0                 !
 ! D18   D(6,7,8,9)           -179.9859         -DE/DX =    0.0                 !
 ! D19   D(12,7,8,3)          -179.9839         -DE/DX =    0.0                 !
 ! D20   D(12,7,8,9)             0.0049         -DE/DX =    0.0                 !
 ! D21   D(6,7,12,11)          179.9868         -DE/DX =    0.0                 !
 ! D22   D(6,7,12,19)           -0.0105         -DE/DX =    0.0                 !
 ! D23   D(8,7,12,11)           -0.0034         -DE/DX =    0.0                 !
 ! D24   D(8,7,12,19)          179.9993         -DE/DX =    0.0                 !
 ! D25   D(3,8,9,10)           179.9836         -DE/DX =    0.0                 !
 ! D26   D(3,8,9,17)            -0.0146         -DE/DX =    0.0                 !
 ! D27   D(7,8,9,10)            -0.0044         -DE/DX =    0.0                 !
 ! D28   D(7,8,9,17)          -180.0026         -DE/DX =    0.0                 !
 ! D29   D(8,9,10,11)            0.0022         -DE/DX =    0.0                 !
 ! D30   D(8,9,10,18)         -179.9982         -DE/DX =    0.0                 !
 ! D31   D(17,9,10,11)         180.0004         -DE/DX =    0.0                 !
 ! D32   D(17,9,10,18)           0.0            -DE/DX =    0.0                 !
 ! D33   D(9,10,11,12)          -0.0005         -DE/DX =    0.0                 !
 ! D34   D(9,10,11,14)         179.999          -DE/DX =    0.0                 !
 ! D35   D(18,10,11,12)        179.9999         -DE/DX =    0.0                 !
 ! D36   D(18,10,11,14)         -0.0006         -DE/DX =    0.0                 !
 ! D37   D(10,11,12,7)           0.0012         -DE/DX =    0.0                 !
 ! D38   D(10,11,12,19)       -180.0016         -DE/DX =    0.0                 !
 ! D39   D(14,11,12,7)         180.0017         -DE/DX =    0.0                 !
 ! D40   D(14,11,12,19)         -0.001          -DE/DX =    0.0                 !
 --------------------------------------------------------------------------------
 GradGradGradGradGradGradGradGradGradGradGradGradGradGradGradGradGradGrad

                          Input orientation:                          
 ---------------------------------------------------------------------
 Center     Atomic      Atomic             Coordinates (Angstroms)
 Number     Number       Type             X           Y           Z
 ---------------------------------------------------------------------
      1          7           0        1.126230   -2.172026    0.097291
      2          6           0        2.323612   -2.114512    0.153514
      3          6           0        3.798867   -2.084219    0.233456
      4          6           0        4.443665   -3.317605    0.596023
      5          6           0        5.909669   -3.088815    0.623248
      6          6           0        6.589220   -1.912442    0.355554
      7          6           0        5.863827   -0.713586   -0.002725
      8          6           0        4.415677   -0.801447   -0.066736
      9          6           0        3.688005    0.393262   -0.424392
     10          6           0        4.330637    1.588698   -0.699733
     11          6           0        5.769770    1.671035   -0.634761
     12          6           0        6.509533    0.525258   -0.289269
     13          7           0        6.996952    3.969277   -1.164652
     14          6           0        6.444273    2.931244   -0.925223
     15          1           0        6.549078   -3.952692    0.887903
     16          1           0        7.687276   -1.846699    0.404251
     17          1           0        2.591763    0.335998   -0.475322
     18          1           0        3.758976    2.486202   -0.969890
     19          1           0        7.606142    0.582239   -0.238276
 ---------------------------------------------------------------------
                    Distance matrix (angstroms):
                    1          2          3          4          5
     1  N    0.000000
     2  C    1.200080   0.000000
     3  C    2.677543   1.477729   0.000000
     4  C    3.544920   2.477472   1.438215   0.000000
     5  C    4.898818   3.745627   2.369945   1.484000   0.000000
     6  C    5.475248   4.275168   2.798301   2.575988   1.384667
     7  C    4.958011   3.810528   2.489674   3.025934   2.456758
     8  C    3.567331   2.479795   1.454673   2.602130   2.817826
     9  C    3.662724   2.912812   2.565729   3.922092   4.261244
    10  C    5.004650   4.297668   3.826740   5.075783   5.111042
    11  C    6.071859   5.179551   4.328994   5.306591   4.925275
    12  C    6.033632   4.968539   3.798726   4.451870   3.775454
    13  N    8.589149   7.783968   6.987651   7.919463   7.361755
    14  C    7.441135   6.603270   5.787537   6.735335   6.238964
    15  H    5.762214   4.666132   3.388680   2.218399   1.106873
    16  H    6.576274   5.376196   3.899399   3.566701   2.179609
    17  H    2.960719   2.544080   2.795874   4.233926   4.893332
    18  H    5.456126   4.948624   4.726349   6.050211   6.184204
    19  H    7.048960   5.943996   4.672031   5.089803   4.134837
                    6          7          8          9         10
     6  C    0.000000
     7  C    1.446311   0.000000
     8  C    2.477282   1.452224   0.000000
     9  C    3.787035   2.477321   1.443868   0.000000
    10  C    4.298001   2.852543   2.474007   1.384867   0.000000
    11  C    3.807037   2.468751   2.875654   2.451674   1.442950
    12  C    2.522802   1.426106   2.488755   2.827844   2.459059
    13  N    6.088669   4.956132   5.534276   4.927981   3.604516
    14  C    5.012254   3.804301   4.334188   3.780106   2.514107
    15  H    2.108940   3.428498   3.923401   5.366113   6.176494
    16  H    1.101099   2.185072   3.466661   4.658137   4.928261
    17  H    4.661061   3.468627   2.188009   1.098917   2.154832
    18  H    5.395845   3.950246   3.472114   2.164024   1.097858
    19  H    2.758658   2.184103   3.481821   3.927104   3.457576
                   11         12         13         14         15
    11  C    0.000000
    12  C    1.406918   0.000000
    13  N    2.658698   3.586800   0.000000
    14  C    1.458578   2.489471   1.200122   0.000000
    15  H    5.878106   4.630263   8.195801   7.119479   0.000000
    16  H    4.138940   2.737559   6.063298   5.112856   2.442257
    17  H    3.450720   3.926748   5.751658   4.666856   5.992627
    18  H    2.195472   3.445882   3.566781   2.722293   7.259160
    19  H    2.171391   1.099272   3.563890   2.709181   4.790747
                   16         17         18         19
    16  H    0.000000
    17  H    5.612669   0.000000
    18  H    6.007814   2.496069   0.000000
    19  H    2.513795   5.026014   4.354425   0.000000
 Stoichiometry    C12H5N2(1-)
 Framework group  C1[X(C12H5N2)]
 Deg. of freedom    51
 Full point group                 C1      NOp   1
 Largest Abelian subgroup         C1      NOp   1
 Largest concise Abelian subgroup C1      NOp   1
                         Standard orientation:                         
 ---------------------------------------------------------------------
 Center     Atomic      Atomic             Coordinates (Angstroms)
 Number     Number       Type             X           Y           Z
 ---------------------------------------------------------------------
      1          7           0        3.413502   -2.442787    0.000596
      2          6           0        2.804349   -1.408802    0.000290
      3          6           0        2.090684   -0.114829   -0.000070
      4          6           0        2.911197    1.066365   -0.000005
      5          6           0        2.021521    2.254107   -0.000397
      6          6           0        0.637031    2.276275    0.000173
      7          6           0       -0.114627    1.040628    0.000148
      8          6           0        0.638566   -0.201006   -0.000273
      9          6           0       -0.108330   -1.436685   -0.000616
     10          6           0       -1.493052   -1.456761   -0.000462
     11          6           0       -2.237023   -0.220391    0.000006
     12          6           0       -1.540205    1.001846    0.000314
     13          7           0       -4.895324   -0.266348    0.000255
     14          6           0       -3.695407   -0.244175    0.000144
     15          1           0        2.508783    3.247960   -0.000860
     16          1           0        0.066708    3.218163    0.000425
     17          1           0        0.453425   -2.381168   -0.000979
     18          1           0       -2.042508   -2.407229   -0.000699
     19          1           0       -2.101880    1.946791    0.000645
 ---------------------------------------------------------------------
 Rotational constants (GHZ):      1.4090670      0.4591040      0.3462790

 **********************************************************************

            Population analysis using the SCF density.

 **********************************************************************

 Orbital symmetries:
       Occupied  (A) (A) (A) (A) (A) (A) (A) (A) (A) (A) (A) (A)
                 (A) (A) (A) (A) (A) (A) (A) (A) (A) (A) (A) (A)
                 (A) (A) (A) (A) (A) (A) (A) (A) (A) (A) (A) (A)
                 (A) (A) (A) (A) (A) (A) (A) (A) (A) (A)
       Virtual   (A) (A) (A) (A) (A) (A) (A) (A) (A) (A) (A) (A)
                 (A) (A) (A) (A) (A) (A) (A) (A) (A) (A) (A) (A)
                 (A) (A) (A) (A) (A)
 The electronic state is 1-A.
 Alpha  occ. eigenvalues --  -14.00009 -13.93163  -9.91220  -9.90522  -9.89130
 Alpha  occ. eigenvalues --   -9.88609  -9.87377  -9.87291  -9.87155  -9.84687
 Alpha  occ. eigenvalues --   -9.84088  -9.82676  -9.81779  -9.68117  -0.73551
 Alpha  occ. eigenvalues --   -0.68454  -0.67504  -0.61916  -0.58936  -0.54021
 Alpha  occ. eigenvalues --   -0.52649  -0.44248  -0.42937  -0.41101  -0.35803
 Alpha  occ. eigenvalues --   -0.31866  -0.30400  -0.27615  -0.26229  -0.24044
 Alpha  occ. eigenvalues --   -0.21415  -0.21271  -0.19310  -0.17860  -0.17047
 Alpha  occ. eigenvalues --   -0.15916  -0.14557  -0.13160  -0.12708  -0.10843
 Alpha  occ. eigenvalues --   -0.10150  -0.07889  -0.07424  -0.02751   0.01100
 Alpha  occ. eigenvalues --    0.10455
 Alpha virt. eigenvalues --    0.17119   0.19593   0.24802   0.25936   0.29257
 Alpha virt. eigenvalues --    0.31002   0.34066   0.37643   0.42196   0.45840
 Alpha virt. eigenvalues --    0.48103   0.50541   0.52667   0.54210   0.56182
 Alpha virt. eigenvalues --    0.57085   0.59006   0.63611   0.67017   0.67387
 Alpha virt. eigenvalues --    0.70447   0.74503   0.78845   0.81663   0.83668
 Alpha virt. eigenvalues --    0.91030   0.93195   1.05891   1.10524
          Condensed to atoms (all electrons):
               1          2          3          4          5          6
     1  N    6.633616   0.659053  -0.010858  -0.000068  -0.000002   0.000000
     2  C    0.659053   4.974162   0.402639  -0.033954   0.001440   0.000005
     3  C   -0.010858   0.402639   4.902170   0.436571  -0.029217  -0.012439
     4  C   -0.000068  -0.033954   0.436571   5.471161   0.391890  -0.017062
     5  C   -0.000002   0.001440  -0.029217   0.391890   4.917219   0.522004
     6  C    0.000000   0.000005  -0.012439  -0.017062   0.522004   4.867414
     7  C   -0.000001   0.000816  -0.029907  -0.005854  -0.029817   0.457178
     8  C    0.000083  -0.037894   0.448136  -0.017355  -0.011868  -0.028691
     9  C   -0.000218  -0.005035  -0.024374   0.000519   0.000039   0.000843
    10  C    0.000001   0.000018   0.000657  -0.000005   0.000000   0.000030
    11  C    0.000000   0.000000   0.000031   0.000000  -0.000007   0.000746
    12  C    0.000000  -0.000007   0.000755   0.000002   0.000734  -0.027631
    13  N    0.000000   0.000000   0.000000   0.000000   0.000000   0.000000
    14  C    0.000000   0.000000   0.000000   0.000000   0.000000  -0.000005
    15  H    0.000000  -0.000014   0.002112  -0.031096   0.379171  -0.035743
    16  H    0.000000   0.000001   0.000080   0.001038  -0.023750   0.381145
    17  H   -0.000127   0.002113  -0.003189   0.000016   0.000000  -0.000017
    18  H    0.000000   0.000000  -0.000014   0.000000   0.000000   0.000001
    19  H    0.000000   0.000000  -0.000016   0.000000   0.000018  -0.003369
               7          8          9         10         11         12
     1  N   -0.000001   0.000083  -0.000218   0.000001   0.000000   0.000000
     2  C    0.000816  -0.037894  -0.005035   0.000018   0.000000  -0.000007
     3  C   -0.029907   0.448136  -0.024374   0.000657   0.000031   0.000755
     4  C   -0.005854  -0.017355   0.000519  -0.000005   0.000000   0.000002
     5  C   -0.029817  -0.011868   0.000039   0.000000  -0.000007   0.000734
     6  C    0.457178  -0.028691   0.000843   0.000030   0.000746  -0.027631
     7  C    4.806672   0.456592  -0.027349  -0.008931  -0.027613   0.482346
     8  C    0.456592   4.821801   0.461082  -0.026250  -0.008863  -0.026003
     9  C   -0.027349   0.461082   4.832580   0.530064  -0.028933  -0.009712
    10  C   -0.008931  -0.026250   0.530064   4.826837   0.461620  -0.029518
    11  C   -0.027613  -0.008863  -0.028933   0.461620   4.776860   0.503820
    12  C    0.482346  -0.026003  -0.009712  -0.029518   0.503820   4.826247
    13  N   -0.000001   0.000000  -0.000001  -0.000078  -0.011056  -0.000105
    14  C    0.000840   0.000013   0.000832  -0.028102   0.422690  -0.028959
    15  H    0.001562   0.000001   0.000001   0.000000   0.000000  -0.000021
    16  H   -0.027498   0.001216  -0.000017  -0.000001   0.000010  -0.003396
    17  H    0.001269  -0.025255   0.385917  -0.025960   0.001368   0.000022
    18  H    0.000029   0.001318  -0.024752   0.387381  -0.025132   0.001222
    19  H   -0.024476   0.001244   0.000027   0.001281  -0.025601   0.385318
              13         14         15         16         17         18
     1  N    0.000000   0.000000   0.000000   0.000000  -0.000127   0.000000
     2  C    0.000000   0.000000  -0.000014   0.000001   0.002113   0.000000
     3  C    0.000000   0.000000   0.002112   0.000080  -0.003189  -0.000014
     4  C    0.000000   0.000000  -0.031096   0.001038   0.000016   0.000000
     5  C    0.000000   0.000000   0.379171  -0.023750   0.000000   0.000000
     6  C    0.000000  -0.000005  -0.035743   0.381145  -0.000017   0.000001
     7  C   -0.000001   0.000840   0.001562  -0.027498   0.001269   0.000029
     8  C    0.000000   0.000013   0.000001   0.001216  -0.025255   0.001318
     9  C   -0.000001   0.000832   0.000001  -0.000017   0.385917  -0.024752
    10  C   -0.000078  -0.028102   0.000000  -0.000001  -0.025960   0.387381
    11  C   -0.011056   0.422690   0.000000   0.000010   0.001368  -0.025132
    12  C   -0.000105  -0.028959  -0.000021  -0.003396   0.000022   0.001222
    13  N    6.591188   0.659949   0.000000   0.000000   0.000000   0.000058
    14  C    0.659949   4.933980   0.000000   0.000000  -0.000016  -0.002990
    15  H    0.000000   0.000000   0.661528  -0.004101   0.000000   0.000000
    16  H    0.000000   0.000000  -0.004101   0.633473   0.000000   0.000000
    17  H    0.000000  -0.000016   0.000000   0.000000   0.593487  -0.003850
    18  H    0.000058  -0.002990   0.000000   0.000000  -0.003850   0.602986
    19  H    0.000061  -0.003431  -0.000002   0.001062   0.000002  -0.000034
              19
     1  N    0.000000
     2  C    0.000000
     3  C   -0.000016
     4  C    0.000000
     5  C    0.000018
     6  C   -0.003369
     7  C   -0.024476
     8  C    0.001244
     9  C    0.000027
    10  C    0.001281
    11  C   -0.025601
    12  C    0.385318
    13  N    0.000061
    14  C   -0.003431
    15  H   -0.000002
    16  H    0.001062
    17  H    0.000002
    18  H   -0.000034
    19  H    0.601635
 Mulliken charges:
               1
     1  N   -0.281479
     2  C    0.036656
     3  C   -0.083140
     4  C   -0.195802
     5  C   -0.117854
     6  C   -0.104408
     7  C   -0.025855
     8  C   -0.009306
     9  C   -0.091514
    10  C   -0.089045
    11  C   -0.039939
    12  C   -0.075116
    13  N   -0.240015
    14  C    0.045201
    15  H    0.026601
    16  H    0.040738
    17  H    0.074218
    18  H    0.063776
    19  H    0.066280
 Sum of Mulliken charges =  -1.00000
 Mulliken charges with hydrogens summed into heavy atoms:
               1
     1  N   -0.281479
     2  C    0.036656
     3  C   -0.083140
     4  C   -0.195802
     5  C   -0.091253
     6  C   -0.063669
     7  C   -0.025855
     8  C   -0.009306
     9  C   -0.017296
    10  C   -0.025268
    11  C   -0.039939
    12  C   -0.008836
    13  N   -0.240015
    14  C    0.045201
 Electronic spatial extent (au):  <R**2>=           2920.6990
 Charge=             -1.0000 electrons
 Dipole moment (field-independent basis, Debye):
    X=             -5.1209    Y=              1.1023    Z=             -0.0013  Tot=              5.2382
 Quadrupole moment (field-independent basis, Debye-Ang):
   XX=           -142.1297   YY=            -85.1211   ZZ=            -74.1416
   XY=              3.2867   XZ=             -0.0032   YZ=              0.0039
 Traceless Quadrupole moment (field-independent basis, Debye-Ang):
   XX=            -41.6655   YY=             15.3430   ZZ=             26.3225
   XY=              3.2867   XZ=             -0.0032   YZ=              0.0039
 Octapole moment (field-independent basis, Debye-Ang**2):
  XXX=             27.0779  YYY=             15.1707  ZZZ=              0.0025  XYY=            -53.3212
  XXY=             30.2132  XXZ=             -0.0264  XZZ=             -1.1945  YZZ=             -2.6301
  YYZ=             -0.0073  XYZ=              0.0070
 Hexadecapole moment (field-independent basis, Debye-Ang**3):
 XXXX=          -4071.3933 YYYY=          -1052.2350 ZZZZ=            -58.3434 XXXY=             24.9475
 XXXZ=             -0.0107 YYYX=             75.9411 YYYZ=              0.0301 ZZZX=              0.0010
 ZZZY=             -0.0041 XXYY=           -761.8510 XXZZ=           -450.3058 YYZZ=           -179.3164
 XXYZ=              0.0349 YYXZ=             -0.0297 ZZXY=             -6.6984
 N-N= 6.927486037287D+02 E-N=-2.707519410390D+03  KE= 5.547524496832D+02
 1\1\GINC-N050\FOpt\RB3LYP\STO-3G\C12H5N2(1-)\R2532\15-Jun-2021\0\\#N B
 3LYP/STO-3G OPT\\1Naph\\-1,1\N,1.1262301886,-2.1720261202,0.0972906593
 \C,2.3236121492,-2.114512421,0.1535136507\C,3.7988665014,-2.0842185958
 ,0.2334560137\C,4.4436646317,-3.3176051495,0.5960225566\C,5.9096691181
 ,-3.0888150114,0.6232481712\C,6.5892197322,-1.9124417141,0.3555540973\
 C,5.8638269194,-0.7135858352,-0.0027254255\C,4.4156770253,-0.801447221
 3,-0.0667361394\C,3.6880046496,0.3932622154,-0.42439162\C,4.3306370116
 ,1.5886984973,-0.6997325187\C,5.769769704,1.6710347787,-0.6347614158\C
 ,6.5095325399,0.5252582943,-0.2892690477\N,6.9969518234,3.9692767322,-
 1.1646521004\C,6.4442733441,2.9312441268,-0.9252226176\H,6.5490776147,
 -3.952691879,0.8879032089\H,7.6872755815,-1.8466991825,0.4042506455\H,
 2.5917634412,0.3359980132,-0.4753218603\H,3.7589763,2.4862016133,-0.96
 98900888\H,7.6061417242,0.5822388588,-0.2382761692\\Version=ES64L-G09R
 evD.01\State=1-A\HF=-562.5211963\RMSD=9.204e-09\RMSF=2.808e-05\Dipole=
 1.3410661,1.5312733,-0.3224566\Quadrupole=-0.2459075,-17.2995567,17.54
 54642,-18.7464779,3.7414018,8.5619715\PG=C01 [X(C12H5N2)]\\@


 MYSTERY IS THE WISDOM OF BLOCKHEADS... HORACE WALPOLE 
 Job cpu time:       0 days  0 hours  5 minutes 51.1 seconds.
 File lengths (MBytes):  RWF=      5 Int=      0 D2E=      0 Chk=      2 Scr=      1
 Normal termination of Gaussian 09 at Tue Jun 15 11:19:45 2021.
