 Entering Gaussian System, Link 0=/usr/local/apps//g09/g09
 Input=33.com
 Output=33.out
 Initial command:
 /usr/local/apps//g09/l1.exe "/tmp/bnp.472672.sequoia/Gau-23847.inp" -scrdir="/tmp/bnp.472672.sequoia/"
 Entering Link 1 = /usr/local/apps//g09/l1.exe PID=     23848.
  
 Copyright (c) 1988,1990,1992,1993,1995,1998,2003,2009,2013,
            Gaussian, Inc.  All Rights Reserved.
  
 This is part of the Gaussian(R) 09 program.  It is based on
 the Gaussian(R) 03 system (copyright 2003, Gaussian, Inc.),
 the Gaussian(R) 98 system (copyright 1998, Gaussian, Inc.),
 the Gaussian(R) 94 system (copyright 1995, Gaussian, Inc.),
 the Gaussian 92(TM) system (copyright 1992, Gaussian, Inc.),
 the Gaussian 90(TM) system (copyright 1990, Gaussian, Inc.),
 the Gaussian 88(TM) system (copyright 1988, Gaussian, Inc.),
 the Gaussian 86(TM) system (copyright 1986, Carnegie Mellon
 University), and the Gaussian 82(TM) system (copyright 1983,
 Carnegie Mellon University). Gaussian is a federally registered
 trademark of Gaussian, Inc.
  
 This software contains proprietary and confidential information,
 including trade secrets, belonging to Gaussian, Inc.
  
 This software is provided under written license and may be
 used, copied, transmitted, or stored only in accord with that
 written license.
  
 The following legend is applicable only to US Government
 contracts under FAR:
  
                    RESTRICTED RIGHTS LEGEND
  
 Use, reproduction and disclosure by the US Government is
 subject to restrictions as set forth in subparagraphs (a)
 and (c) of the Commercial Computer Software - Restricted
 Rights clause in FAR 52.227-19.
  
 Gaussian, Inc.
 340 Quinnipiac St., Bldg. 40, Wallingford CT 06492
  
  
 ---------------------------------------------------------------
 Warning -- This program may not be used in any manner that
 competes with the business of Gaussian, Inc. or will provide
 assistance to any competitor of Gaussian, Inc.  The licensee
 of this program is prohibited from giving any competitor of
 Gaussian, Inc. access to this program.  By using this program,
 the user acknowledges that Gaussian, Inc. is engaged in the
 business of creating and licensing software in the field of
 computational chemistry and represents and warrants to the
 licensee that it is not a competitor of Gaussian, Inc. and that
 it will not use this program in any manner prohibited above.
 ---------------------------------------------------------------
  

 Cite this work as:
 Gaussian 09, Revision D.01,
 M. J. Frisch, G. W. Trucks, H. B. Schlegel, G. E. Scuseria, 
 M. A. Robb, J. R. Cheeseman, G. Scalmani, V. Barone, B. Mennucci, 
 G. A. Petersson, H. Nakatsuji, M. Caricato, X. Li, H. P. Hratchian, 
 A. F. Izmaylov, J. Bloino, G. Zheng, J. L. Sonnenberg, M. Hada, 
 M. Ehara, K. Toyota, R. Fukuda, J. Hasegawa, M. Ishida, T. Nakajima, 
 Y. Honda, O. Kitao, H. Nakai, T. Vreven, J. A. Montgomery, Jr., 
 J. E. Peralta, F. Ogliaro, M. Bearpark, J. J. Heyd, E. Brothers, 
 K. N. Kudin, V. N. Staroverov, T. Keith, R. Kobayashi, J. Normand, 
 K. Raghavachari, A. Rendell, J. C. Burant, S. S. Iyengar, J. Tomasi, 
 M. Cossi, N. Rega, J. M. Millam, M. Klene, J. E. Knox, J. B. Cross, 
 V. Bakken, C. Adamo, J. Jaramillo, R. Gomperts, R. E. Stratmann, 
 O. Yazyev, A. J. Austin, R. Cammi, C. Pomelli, J. W. Ochterski, 
 R. L. Martin, K. Morokuma, V. G. Zakrzewski, G. A. Voth, 
 P. Salvador, J. J. Dannenberg, S. Dapprich, A. D. Daniels, 
 O. Farkas, J. B. Foresman, J. V. Ortiz, J. Cioslowski, 
 and D. J. Fox, Gaussian, Inc., Wallingford CT, 2013.
 
 ******************************************
 Gaussian 09:  ES64L-G09RevD.01 24-Apr-2013
                15-Jun-2021 
 ******************************************
 -------------------
 #N B3LYP/STO-3G OPT
 -------------------
 1/14=-1,18=20,19=15,26=3,38=1/1,3;
 2/9=110,12=2,17=6,18=5,40=1/2;
 3/6=3,11=2,16=1,25=1,30=1,71=1,74=-5/1,2,3;
 4//1;
 5/5=2,38=5/2;
 6/7=2,8=2,9=2,10=2,28=1/1;
 7//1,2,3,16;
 1/14=-1,18=20,19=15,26=3/3(2);
 2/9=110/2;
 99//99;
 2/9=110/2;
 3/6=3,11=2,16=1,25=1,30=1,71=1,74=-5/1,2,3;
 4/5=5,16=3,69=1/1;
 5/5=2,38=5/2;
 7//1,2,3,16;
 1/14=-1,18=20,19=15,26=3/3(-5);
 2/9=110/2;
 6/7=2,8=2,9=2,10=2,19=2,28=1/1;
 99/9=1/99;
 -----
 1Naph
 -----
 Symbolic Z-matrix:
 Charge = -1 Multiplicity = 1
 N                     1.14605   0.02962   0.01846 
 C                     2.30688   0.00059   0.01923 
 C                     3.74328   0.0047    0.02005 
 C                     4.40213   1.24351   0.02053 
 C                     5.79324   1.30084   0.02075 
 C                     6.53555   0.12248   0.02075 
 C                     5.90016  -1.12679   0.02071 
 C                     4.48651  -1.19721   0.02015 
 C                     3.88753  -2.47073   0.01956 
 C                     4.64847  -3.64173   0.01967 
 C                     6.0397   -3.56082   0.02042 
 C                     6.65896  -2.30684   0.02082 
 N                     7.53518  -5.67959   0.01972 
 C                     6.8516   -4.74412   0.02013 
 H                     3.83323   2.17224   0.02055 
 H                     6.30217   2.26198   0.02078 
 H                     7.62251   0.18811   0.02061 
 H                     4.14092  -4.60411   0.01894 
 H                     7.74745  -2.25064   0.02093 
 

 GradGradGradGradGradGradGradGradGradGradGradGradGradGradGradGradGradGrad
 Berny optimization.
 Initialization pass.
                           ----------------------------
                           !    Initial Parameters    !
                           ! (Angstroms and Degrees)  !
 --------------------------                            --------------------------
 ! Name  Definition              Value          Derivative Info.                !
 --------------------------------------------------------------------------------
 ! R1    R(1,2)                  1.1612         estimate D2E/DX2                !
 ! R2    R(2,3)                  1.4364         estimate D2E/DX2                !
 ! R3    R(3,4)                  1.4031         estimate D2E/DX2                !
 ! R4    R(3,8)                  1.4131         estimate D2E/DX2                !
 ! R5    R(4,5)                  1.3923         estimate D2E/DX2                !
 ! R6    R(4,15)                 1.0891         estimate D2E/DX2                !
 ! R7    R(5,6)                  1.3927         estimate D2E/DX2                !
 ! R8    R(5,16)                 1.0876         estimate D2E/DX2                !
 ! R9    R(6,7)                  1.4016         estimate D2E/DX2                !
 ! R10   R(6,17)                 1.0889         estimate D2E/DX2                !
 ! R11   R(7,8)                  1.4154         estimate D2E/DX2                !
 ! R12   R(7,12)                 1.403          estimate D2E/DX2                !
 ! R13   R(8,9)                  1.4073         estimate D2E/DX2                !
 ! R14   R(9,10)                 1.3965         estimate D2E/DX2                !
 ! R15   R(10,11)                1.3936         estimate D2E/DX2                !
 ! R16   R(10,18)                1.088          estimate D2E/DX2                !
 ! R17   R(11,12)                1.3986         estimate D2E/DX2                !
 ! R18   R(11,14)                1.4351         estimate D2E/DX2                !
 ! R19   R(12,19)                1.0899         estimate D2E/DX2                !
 ! R20   R(13,14)                1.1586         estimate D2E/DX2                !
 ! A1    A(2,3,4)              118.1698         estimate D2E/DX2                !
 ! A2    A(2,3,8)              121.5676         estimate D2E/DX2                !
 ! A3    A(4,3,8)              120.2625         estimate D2E/DX2                !
 ! A4    A(3,4,5)              120.3658         estimate D2E/DX2                !
 ! A5    A(3,4,15)             120.5043         estimate D2E/DX2                !
 ! A6    A(5,4,15)             119.1299         estimate D2E/DX2                !
 ! A7    A(4,5,6)              119.849          estimate D2E/DX2                !
 ! A8    A(4,5,16)             120.2614         estimate D2E/DX2                !
 ! A9    A(6,5,16)             119.8895         estimate D2E/DX2                !
 ! A10   A(5,6,7)              120.8327         estimate D2E/DX2                !
 ! A11   A(5,6,17)             118.7537         estimate D2E/DX2                !
 ! A12   A(7,6,17)             120.4136         estimate D2E/DX2                !
 ! A13   A(6,7,8)              119.8101         estimate D2E/DX2                !
 ! A14   A(6,7,12)             120.2997         estimate D2E/DX2                !
 ! A15   A(8,7,12)             119.8902         estimate D2E/DX2                !
 ! A16   A(3,8,7)              118.8798         estimate D2E/DX2                !
 ! A17   A(3,8,9)              123.0792         estimate D2E/DX2                !
 ! A18   A(7,8,9)              118.041          estimate D2E/DX2                !
 ! A19   A(8,9,10)             121.7941         estimate D2E/DX2                !
 ! A20   A(9,10,11)            119.6882         estimate D2E/DX2                !
 ! A21   A(9,10,18)            119.1766         estimate D2E/DX2                !
 ! A22   A(11,10,18)           121.1352         estimate D2E/DX2                !
 ! A23   A(10,11,12)           119.6102         estimate D2E/DX2                !
 ! A24   A(10,11,14)           121.1268         estimate D2E/DX2                !
 ! A25   A(12,11,14)           119.2629         estimate D2E/DX2                !
 ! A26   A(7,12,11)            120.9762         estimate D2E/DX2                !
 ! A27   A(7,12,19)            119.7864         estimate D2E/DX2                !
 ! A28   A(11,12,19)           119.2374         estimate D2E/DX2                !
 ! A29   L(1,2,3,18,-1)        181.5965         estimate D2E/DX2                !
 ! A30   L(11,14,13,19,-1)     178.2984         estimate D2E/DX2                !
 ! A31   L(1,2,3,18,-2)        179.9937         estimate D2E/DX2                !
 ! A32   L(11,14,13,19,-2)     180.011          estimate D2E/DX2                !
 ! D1    D(2,3,4,5)           -179.9724         estimate D2E/DX2                !
 ! D2    D(2,3,4,15)             0.0163         estimate D2E/DX2                !
 ! D3    D(8,3,4,5)              0.0171         estimate D2E/DX2                !
 ! D4    D(8,3,4,15)          -179.9942         estimate D2E/DX2                !
 ! D5    D(2,3,8,7)            179.9878         estimate D2E/DX2                !
 ! D6    D(2,3,8,9)             -0.0046         estimate D2E/DX2                !
 ! D7    D(4,3,8,7)             -0.0014         estimate D2E/DX2                !
 ! D8    D(4,3,8,9)           -179.9938         estimate D2E/DX2                !
 ! D9    D(3,4,5,6)             -0.0122         estimate D2E/DX2                !
 ! D10   D(3,4,5,16)           179.9791         estimate D2E/DX2                !
 ! D11   D(15,4,5,6)           179.9989         estimate D2E/DX2                !
 ! D12   D(15,4,5,16)           -0.0097         estimate D2E/DX2                !
 ! D13   D(4,5,6,7)             -0.0085         estimate D2E/DX2                !
 ! D14   D(4,5,6,17)           179.9812         estimate D2E/DX2                !
 ! D15   D(16,5,6,7)          -179.9999         estimate D2E/DX2                !
 ! D16   D(16,5,6,17)           -0.0102         estimate D2E/DX2                !
 ! D17   D(5,6,7,8)              0.0242         estimate D2E/DX2                !
 ! D18   D(5,6,7,12)          -179.9948         estimate D2E/DX2                !
 ! D19   D(17,6,7,8)          -179.9653         estimate D2E/DX2                !
 ! D20   D(17,6,7,12)            0.0157         estimate D2E/DX2                !
 ! D21   D(6,7,8,3)             -0.019          estimate D2E/DX2                !
 ! D22   D(6,7,8,9)            179.9738         estimate D2E/DX2                !
 ! D23   D(12,7,8,3)           180.0            estimate D2E/DX2                !
 ! D24   D(12,7,8,9)            -0.0073         estimate D2E/DX2                !
 ! D25   D(6,7,12,11)         -179.9827         estimate D2E/DX2                !
 ! D26   D(6,7,12,19)           -0.0004         estimate D2E/DX2                !
 ! D27   D(8,7,12,11)           -0.0018         estimate D2E/DX2                !
 ! D28   D(8,7,12,19)          179.9805         estimate D2E/DX2                !
 ! D29   D(3,8,9,10)           179.9997         estimate D2E/DX2                !
 ! D30   D(7,8,9,10)             0.0073         estimate D2E/DX2                !
 ! D31   D(8,9,10,11)            0.0019         estimate D2E/DX2                !
 ! D32   D(8,9,10,18)         -179.9845         estimate D2E/DX2                !
 ! D33   D(9,10,11,12)          -0.0111         estimate D2E/DX2                !
 ! D34   D(9,10,11,14)        -179.9802         estimate D2E/DX2                !
 ! D35   D(18,10,11,12)        179.975          estimate D2E/DX2                !
 ! D36   D(18,10,11,14)          0.0059         estimate D2E/DX2                !
 ! D37   D(10,11,12,7)           0.0111         estimate D2E/DX2                !
 ! D38   D(10,11,12,19)       -179.9713         estimate D2E/DX2                !
 ! D39   D(14,11,12,7)         179.9808         estimate D2E/DX2                !
 ! D40   D(14,11,12,19)         -0.0015         estimate D2E/DX2                !
 --------------------------------------------------------------------------------
 Trust Radius=3.00D-01 FncErr=1.00D-07 GrdErr=1.00D-06
 Number of steps in this run=    102 maximum allowed number of steps=    114.
 GradGradGradGradGradGradGradGradGradGradGradGradGradGradGradGradGradGrad

                          Input orientation:                          
 ---------------------------------------------------------------------
 Center     Atomic      Atomic             Coordinates (Angstroms)
 Number     Number       Type             X           Y           Z
 ---------------------------------------------------------------------
      1          7           0        1.146050    0.029620    0.018460
      2          6           0        2.306880    0.000590    0.019230
      3          6           0        3.743280    0.004700    0.020050
      4          6           0        4.402130    1.243510    0.020530
      5          6           0        5.793240    1.300840    0.020750
      6          6           0        6.535550    0.122480    0.020750
      7          6           0        5.900160   -1.126790    0.020710
      8          6           0        4.486510   -1.197210    0.020150
      9          6           0        3.887530   -2.470730    0.019560
     10          6           0        4.648470   -3.641730    0.019670
     11          6           0        6.039700   -3.560820    0.020420
     12          6           0        6.658960   -2.306840    0.020820
     13          7           0        7.535180   -5.679590    0.019720
     14          6           0        6.851600   -4.744120    0.020130
     15          1           0        3.833230    2.172240    0.020550
     16          1           0        6.302170    2.261980    0.020780
     17          1           0        7.622510    0.188110    0.020610
     18          1           0        4.140920   -4.604110    0.018940
     19          1           0        7.747450   -2.250640    0.020930
 ---------------------------------------------------------------------
                    Distance matrix (angstroms):
                    1          2          3          4          5
     1  N    0.000000
     2  C    1.161193   0.000000
     3  C    2.597350   1.436406   0.000000
     4  C    3.474995   2.436170   1.403116   0.000000
     5  C    4.817923   3.720935   2.425349   1.392291   0.000000
     6  C    5.390300   4.230427   2.794753   2.410019   1.392680
     7  C    4.892735   3.765986   2.435652   2.804000   2.429983
     8  C    3.558622   2.487069   1.413145   2.442178   2.819184
     9  C    3.710453   2.933578   2.479629   3.749719   4.225692
    10  C    5.074028   4.330074   3.757103   4.891447   5.073411
    11  C    6.069520   5.159224   4.241047   5.075748   4.867903
    12  C    5.987589   4.925935   3.720807   4.206931   3.710098
    13  N    8.568317   7.720076   6.832983   7.599034   7.194495
    14  C    7.439213   6.570141   5.675645   6.469283   6.136910
    15  H    3.436824   2.654394   2.169406   1.089122   2.144989
    16  H    5.618631   4.590885   3.412218   2.155791   1.087566
    17  H    6.478399   5.318937   3.883563   3.388911   2.141120
    18  H    5.517309   4.956507   4.625932   5.853451   6.131770
    19  H    6.984130   5.887940   4.595643   4.837381   4.053634
                    6          7          8          9         10
     6  C    0.000000
     7  C    1.401569   0.000000
     8  C    2.437242   1.415403   0.000000
     9  C    3.706312   2.420094   1.407349   0.000000
    10  C    4.210742   2.809208   2.449879   1.396521   0.000000
    11  C    3.716526   2.438027   2.828259   2.412495   1.393581
    12  C    2.432453   1.402960   2.439430   2.776272   2.413297
    13  N    5.887553   4.837487   5.420897   4.858203   3.533549
    14  C    4.876852   3.740363   4.263123   3.735507   2.463543
    15  H    3.391762   3.893045   3.432196   4.643288   5.870849
    16  H    2.152191   3.412532   3.906740   5.313100   6.130947
    17  H    1.088940   2.166899   3.428353   4.584704   4.848978
    18  H    5.298576   3.897009   3.424383   2.148375   1.088018
    19  H    2.664658   2.162295   3.426871   3.866190   3.396882
                   11         12         13         14         15
    11  C    0.000000
    12  C    1.398552   0.000000
    13  N    2.593385   3.484710   0.000000
    14  C    1.435054   2.444881   1.158614   0.000000
    15  H    6.143003   5.295933   8.680764   7.546297   0.000000
    16  H    5.828713   4.582730   8.036719   7.027611   2.470570
    17  H    4.069369   2.674547   5.868350   4.992113   4.277314
    18  H    2.166523   3.408516   3.560570   2.714294   6.783332
    19  H    2.152436   1.089940   3.435514   2.649526   5.906182
                   16         17         18         19
    16  H    0.000000
    17  H    2.458502   0.000000
    18  H    7.198208   5.923415   0.000000
    19  H    4.738415   2.441948   4.306493   0.000000
 Stoichiometry    C12H5N2(1-)
 Framework group  C1[X(C12H5N2)]
 Deg. of freedom    51
 Full point group                 C1      NOp   1
 Largest Abelian subgroup         C1      NOp   1
 Largest concise Abelian subgroup C1      NOp   1
                         Standard orientation:                         
 ---------------------------------------------------------------------
 Center     Atomic      Atomic             Coordinates (Angstroms)
 Number     Number       Type             X           Y           Z
 ---------------------------------------------------------------------
      1          7           0        3.460697   -2.363622    0.000408
      2          6           0        2.792663   -1.413832    0.000080
      3          6           0        1.999354   -0.216367   -0.000185
      4          6           0        2.664685    1.018974   -0.000169
      5          6           0        1.940780    2.208274    0.000158
      6          6           0        0.548564    2.172326    0.000216
      7          6           0       -0.138483    0.950703   -0.000232
      8          6           0        0.587033   -0.264613   -0.000232
      9          6           0       -0.140388   -1.469390   -0.000120
     10          6           0       -1.536813   -1.485755   -0.000165
     11          6           0       -2.241165   -0.283276   -0.000362
     12          6           0       -1.541252    0.927538   -0.000279
     13          7           0       -4.833629   -0.214152    0.000503
     14          6           0       -3.676091   -0.264060    0.000011
     15          1           0        3.753006    1.060749   -0.000228
     16          1           0        2.458226    3.164855    0.000512
     17          1           0        0.000268    3.113155    0.000788
     18          1           0       -2.056057   -2.441876    0.000182
     19          1           0       -2.098243    1.864410    0.000042
 ---------------------------------------------------------------------
 Rotational constants (GHZ):      1.4984476      0.4664252      0.3557043
 Standard basis: STO-3G (5D, 7F)
 There are    75 symmetry adapted cartesian basis functions of A   symmetry.
 There are    75 symmetry adapted basis functions of A   symmetry.
    75 basis functions,   225 primitive gaussians,    75 cartesian basis functions
    46 alpha electrons       46 beta electrons
       nuclear repulsion energy       704.8515199331 Hartrees.
 NAtoms=   19 NActive=   19 NUniq=   19 SFac= 1.00D+00 NAtFMM=   60 NAOKFM=F Big=F
 Integral buffers will be    131072 words long.
 Raffenetti 2 integral format.
 Two-electron integral symmetry is turned on.
 One-electron integrals computed using PRISM.
 NBasis=    75 RedAO= T EigKep=  1.54D-01  NBF=    75
 NBsUse=    75 1.00D-06 EigRej= -1.00D+00 NBFU=    75
 ExpMin= 1.69D-01 ExpMax= 9.91D+01 ExpMxC= 9.91D+01 IAcc=1 IRadAn=         1 AccDes= 0.00D+00
 Harris functional with IExCor=  402 and IRadAn=       1 diagonalized for initial guess.
 HarFok:  IExCor=  402 AccDes= 0.00D+00 IRadAn=         1 IDoV= 1 UseB2=F ITyADJ=14
 ICtDFT=  3500011 ScaDFX=  1.000000  1.000000  1.000000  1.000000
 FoFCou: FMM=F IPFlag=           0 FMFlag=      100000 FMFlg1=           0
         NFxFlg=           0 DoJE=T BraDBF=F KetDBF=T FulRan=T
         wScrn=  0.000000 ICntrl=     500 IOpCl=  0 I1Cent=   200000004 NGrid=           0
         NMat0=    1 NMatS0=      1 NMatT0=    0 NMatD0=    1 NMtDS0=    0 NMtDT0=    0
 Petite list used in FoFCou.
 Keep R1 ints in memory in canonical form, NReq=4993994.
 Requested convergence on RMS density matrix=1.00D-08 within 128 cycles.
 Requested convergence on MAX density matrix=1.00D-06.
 Requested convergence on             energy=1.00D-06.
 No special actions if energy rises.
 Integral accuracy reduced to 1.0D-05 until final iterations.
 EnCoef did     5 forward-backward iterations
 EnCoef did     4 forward-backward iterations
 Initial convergence to 1.0D-05 achieved.  Increase integral accuracy.
 SCF Done:  E(RB3LYP) =  -562.476222010     A.U. after   28 cycles
            NFock= 28  Conv=0.44D-08     -V/T= 2.0128

 **********************************************************************

            Population analysis using the SCF density.

 **********************************************************************

 Orbital symmetries:
       Occupied  (A) (A) (A) (A) (A) (A) (A) (A) (A) (A) (A) (A)
                 (A) (A) (A) (A) (A) (A) (A) (A) (A) (A) (A) (A)
                 (A) (A) (A) (A) (A) (A) (A) (A) (A) (A) (A) (A)
                 (A) (A) (A) (A) (A) (A) (A) (A) (A) (A)
       Virtual   (A) (A) (A) (A) (A) (A) (A) (A) (A) (A) (A) (A)
                 (A) (A) (A) (A) (A) (A) (A) (A) (A) (A) (A) (A)
                 (A) (A) (A) (A) (A)
 The electronic state is 1-A.
 Alpha  occ. eigenvalues --  -13.98065 -13.96853  -9.89754  -9.88936  -9.87695
 Alpha  occ. eigenvalues --   -9.87574  -9.87433  -9.87226  -9.87058  -9.85920
 Alpha  occ. eigenvalues --   -9.83718  -9.83564  -9.79706  -9.64088  -0.72947
 Alpha  occ. eigenvalues --   -0.72548  -0.68235  -0.62939  -0.58672  -0.56082
 Alpha  occ. eigenvalues --   -0.50272  -0.46251  -0.42598  -0.41177  -0.33629
 Alpha  occ. eigenvalues --   -0.32853  -0.31103  -0.28250  -0.25786  -0.23713
 Alpha  occ. eigenvalues --   -0.21008  -0.20813  -0.19719  -0.18101  -0.17589
 Alpha  occ. eigenvalues --   -0.15406  -0.14237  -0.13638  -0.13248  -0.12822
 Alpha  occ. eigenvalues --   -0.11072  -0.10852  -0.06656  -0.03898   0.02531
 Alpha  occ. eigenvalues --    0.15589
 Alpha virt. eigenvalues --    0.17021   0.22092   0.25503   0.28947   0.29717
 Alpha virt. eigenvalues --    0.33375   0.34859   0.39911   0.46367   0.47960
 Alpha virt. eigenvalues --    0.49544   0.51568   0.56197   0.58583   0.59652
 Alpha virt. eigenvalues --    0.61778   0.63891   0.64662   0.71127   0.73159
 Alpha virt. eigenvalues --    0.74964   0.78662   0.83335   0.85765   0.88771
 Alpha virt. eigenvalues --    0.98499   0.99841   1.15479   1.16958
          Condensed to atoms (all electrons):
               1          2          3          4          5          6
     1  N    6.569029   0.688212  -0.010493  -0.000262  -0.000001   0.000000
     2  C    0.688212   4.870559   0.421068  -0.033828   0.001048   0.000012
     3  C   -0.010493   0.421068   4.767896   0.504279  -0.029421  -0.011186
     4  C   -0.000262  -0.033828   0.504279   4.834061   0.493350  -0.031023
     5  C   -0.000001   0.001048  -0.029421   0.493350   4.822669   0.519374
     6  C    0.000000   0.000012  -0.011186  -0.031023   0.519374   4.834882
     7  C   -0.000003   0.001106  -0.037124  -0.009939  -0.030095   0.475369
     8  C   -0.000042  -0.028182   0.469219  -0.029542  -0.010149  -0.026956
     9  C   -0.000360   0.001385  -0.037200   0.000862   0.000037   0.001203
    10  C    0.000001  -0.000001   0.001241  -0.000014   0.000001   0.000067
    11  C    0.000000   0.000001  -0.000019   0.000001  -0.000010   0.000973
    12  C    0.000000  -0.000006   0.000955   0.000044   0.000962  -0.035076
    13  N    0.000000   0.000000   0.000000   0.000000   0.000000   0.000000
    14  C    0.000000   0.000000   0.000000   0.000000   0.000000  -0.000005
    15  H    0.000061  -0.003863  -0.025006   0.389603  -0.026894   0.001547
    16  H    0.000000  -0.000021   0.001445  -0.026289   0.390922  -0.026205
    17  H    0.000000   0.000001   0.000007   0.001572  -0.027988   0.386540
    18  H    0.000000  -0.000004  -0.000002   0.000000   0.000000   0.000002
    19  H    0.000000   0.000000  -0.000023  -0.000001   0.000028  -0.004709
               7          8          9         10         11         12
     1  N   -0.000003  -0.000042  -0.000360   0.000001   0.000000   0.000000
     2  C    0.001106  -0.028182   0.001385  -0.000001   0.000001  -0.000006
     3  C   -0.037124   0.469219  -0.037200   0.001241  -0.000019   0.000955
     4  C   -0.009939  -0.029542   0.000862  -0.000014   0.000001   0.000044
     5  C   -0.030095  -0.010149   0.000037   0.000001  -0.000010   0.000962
     6  C    0.475369  -0.026956   0.001203   0.000067   0.000973  -0.035076
     7  C    4.803455   0.447386  -0.031355  -0.012207  -0.027447   0.493078
     8  C    0.447386   4.830729   0.448676  -0.026157  -0.011092  -0.032672
     9  C   -0.031355   0.448676   5.431452   0.491135  -0.028604  -0.014577
    10  C   -0.012207  -0.026157   0.491135   4.892457   0.462303  -0.035467
    11  C   -0.027447  -0.011092  -0.028604   0.462303   4.787655   0.507504
    12  C    0.493078  -0.032672  -0.014577  -0.035467   0.507504   4.870342
    13  N   -0.000002   0.000000  -0.000003  -0.000086  -0.011282  -0.000202
    14  C    0.001033   0.000039   0.001174  -0.028849   0.416875  -0.033518
    15  H    0.000022   0.001318  -0.000021   0.000000   0.000000   0.000001
    16  H    0.001473   0.000031   0.000001   0.000000   0.000000  -0.000021
    17  H   -0.025198   0.001405  -0.000033  -0.000004   0.000022  -0.004214
    18  H   -0.000036   0.001958  -0.035675   0.389290  -0.033968   0.001260
    19  H   -0.026036   0.001330   0.000046   0.001377  -0.026831   0.390749
              13         14         15         16         17         18
     1  N    0.000000   0.000000   0.000061   0.000000   0.000000   0.000000
     2  C    0.000000   0.000000  -0.003863  -0.000021   0.000001  -0.000004
     3  C    0.000000   0.000000  -0.025006   0.001445   0.000007  -0.000002
     4  C    0.000000   0.000000   0.389603  -0.026289   0.001572   0.000000
     5  C    0.000000   0.000000  -0.026894   0.390922  -0.027988   0.000000
     6  C    0.000000  -0.000005   0.001547  -0.026205   0.386540   0.000002
     7  C   -0.000002   0.001033   0.000022   0.001473  -0.025198  -0.000036
     8  C    0.000000   0.000039   0.001318   0.000031   0.001405   0.001958
     9  C   -0.000003   0.001174  -0.000021   0.000001  -0.000033  -0.035675
    10  C   -0.000086  -0.028849   0.000000   0.000000  -0.000004   0.389290
    11  C   -0.011282   0.416875   0.000000   0.000000   0.000022  -0.033968
    12  C   -0.000202  -0.033518   0.000001  -0.000021  -0.004214   0.001260
    13  N    6.595932   0.685554   0.000000   0.000000   0.000000   0.000096
    14  C    0.685554   4.913547   0.000000   0.000000  -0.000003  -0.003486
    15  H    0.000000   0.000000   0.607400  -0.004001  -0.000041   0.000000
    16  H    0.000000   0.000000  -0.004001   0.612666  -0.004033   0.000000
    17  H    0.000000  -0.000003  -0.000041  -0.004033   0.616787   0.000000
    18  H    0.000096  -0.003486   0.000000   0.000000   0.000000   0.647043
    19  H    0.000088  -0.004250   0.000000  -0.000002   0.001015  -0.000043
              19
     1  N    0.000000
     2  C    0.000000
     3  C   -0.000023
     4  C   -0.000001
     5  C    0.000028
     6  C   -0.004709
     7  C   -0.026036
     8  C    0.001330
     9  C    0.000046
    10  C    0.001377
    11  C   -0.026831
    12  C    0.390749
    13  N    0.000088
    14  C   -0.004250
    15  H    0.000000
    16  H   -0.000002
    17  H    0.001015
    18  H   -0.000043
    19  H    0.620675
 Mulliken charges:
               1
     1  N   -0.246141
     2  C    0.082514
     3  C   -0.015637
     4  C   -0.092875
     5  C   -0.103834
     6  C   -0.084807
     7  C   -0.023481
     8  C   -0.037299
     9  C   -0.228145
    10  C   -0.135085
    11  C   -0.036079
    12  C   -0.109141
    13  N   -0.270096
    14  C    0.051887
    15  H    0.059873
    16  H    0.054033
    17  H    0.054166
    18  H    0.033563
    19  H    0.046584
 Sum of Mulliken charges =  -1.00000
 Mulliken charges with hydrogens summed into heavy atoms:
               1
     1  N   -0.246141
     2  C    0.082514
     3  C   -0.015637
     4  C   -0.033002
     5  C   -0.049801
     6  C   -0.030641
     7  C   -0.023481
     8  C   -0.037299
     9  C   -0.228145
    10  C   -0.101522
    11  C   -0.036079
    12  C   -0.062556
    13  N   -0.270096
    14  C    0.051887
 Electronic spatial extent (au):  <R**2>=           2852.9526
 Charge=             -1.0000 electrons
 Dipole moment (field-independent basis, Debye):
    X=              2.4724    Y=              5.8815    Z=             -0.0009  Tot=              6.3801
 Quadrupole moment (field-independent basis, Debye-Ang):
   XX=           -121.2185   YY=            -89.1034   ZZ=            -73.8154
   XY=              9.1755   XZ=              0.0018   YZ=              0.0033
 Traceless Quadrupole moment (field-independent basis, Debye-Ang):
   XX=            -26.5061   YY=              5.6091   ZZ=             20.8970
   XY=              9.1755   XZ=              0.0018   YZ=              0.0033
 Octapole moment (field-independent basis, Debye-Ang**2):
  XXX=            129.1881  YYY=             39.0444  ZZZ=              0.0026  XYY=            -35.9581
  XXY=             48.2865  XXZ=             -0.0312  XZZ=             -1.3558  YZZ=             -3.2395
  YYZ=              0.0002  XYZ=              0.0061
 Hexadecapole moment (field-independent basis, Debye-Ang**3):
 XXXX=          -3768.0463 YYYY=          -1001.3938 ZZZZ=            -57.9871 XXXY=            120.2383
 XXXZ=              0.0928 YYYX=             80.4911 YYYZ=              0.0251 ZZZX=             -0.0029
 ZZZY=             -0.0022 XXYY=           -703.5190 XXZZ=           -447.4305 YYZZ=           -168.2684
 XXYZ=              0.0326 YYXZ=             -0.0179 ZZXY=             -7.7877
 N-N= 7.048515199331D+02 E-N=-2.732180860093D+03  KE= 5.553668487624D+02
 Calling FoFJK, ICntrl=      2127 FMM=F ISym2X=0 I1Cent= 0 IOpClX= 0 NMat=1 NMatS=1 NMatT=0.
 ***** Axes restored to original set *****
 -------------------------------------------------------------------
 Center     Atomic                   Forces (Hartrees/Bohr)
 Number     Number              X              Y              Z
 -------------------------------------------------------------------
      1        7          -0.101255939    0.004893668   -0.000066581
      2        6           0.076248781   -0.011197792    0.000061389
      3        6           0.008634663    0.031335162    0.000022999
      4        6          -0.021889239    0.004326489   -0.000006033
      5        6           0.025002081   -0.007209114    0.000002117
      6        6           0.010729254    0.035063867   -0.000005046
      7        6           0.025166141    0.009598370   -0.000022634
      8        6           0.012998973   -0.038748876    0.000017672
      9        6          -0.087685767   -0.026369799   -0.000051679
     10        6          -0.023905321    0.034110477    0.000007737
     11        6           0.021315275   -0.002444515    0.000003422
     12        6           0.020647059   -0.014351378    0.000004755
     13        7           0.061961664   -0.092606509   -0.000038650
     14        6          -0.040753885    0.073990145    0.000049136
     15        1          -0.005643698    0.004932714   -0.000004273
     16        1           0.002882425    0.007536221    0.000003825
     17        1           0.009227700   -0.000609449    0.000018072
     18        1           0.001522360   -0.014285821   -0.000009011
     19        1           0.004797474    0.002036141    0.000012782
 -------------------------------------------------------------------
 Cartesian Forces:  Max     0.101255939 RMS     0.030605188

 GradGradGradGradGradGradGradGradGradGradGradGradGradGradGradGradGradGrad
 Berny optimization.
 FormGI is forming the generalized inverse of G from B-inverse, IUseBI=4.
 Internal  Forces:  Max     0.111328357 RMS     0.021680320
 Search for a local minimum.
 Step number   1 out of a maximum of  102
 All quantities printed in internal units (Hartrees-Bohrs-Radians)
 Mixed Optimization -- RFO/linear search
 Second derivative matrix not updated -- first step.
 ITU=  0
     Eigenvalues ---    0.01607   0.01607   0.01944   0.01946   0.01981
     Eigenvalues ---    0.02003   0.02053   0.02070   0.02078   0.02112
     Eigenvalues ---    0.02126   0.02137   0.02139   0.02157   0.02162
     Eigenvalues ---    0.02188   0.04885   0.04885   0.16000   0.16000
     Eigenvalues ---    0.16000   0.16000   0.16000   0.22094   0.23239
     Eigenvalues ---    0.23438   0.23710   0.24913   0.25000   0.25000
     Eigenvalues ---    0.25000   0.34820   0.34914   0.34935   0.35043
     Eigenvalues ---    0.35095   0.38430   0.40082   0.40272   0.40973
     Eigenvalues ---    0.41887   0.43306   0.44246   0.45239   0.45275
     Eigenvalues ---    0.45638   0.45756   0.46351   0.46658   1.27016
     Eigenvalues ---    1.28705
 RFO step:  Lambda=-6.63530200D-02 EMin= 1.60717264D-02
 Linear search not attempted -- first point.
 Maximum step size (   0.300) exceeded in Quadratic search.
    -- Step size scaled by   0.786
 Iteration  1 RMS(Cart)=  0.04513158 RMS(Int)=  0.00114609
 Iteration  2 RMS(Cart)=  0.00223241 RMS(Int)=  0.00019611
 Iteration  3 RMS(Cart)=  0.00000257 RMS(Int)=  0.00019610
 Iteration  4 RMS(Cart)=  0.00000000 RMS(Int)=  0.00019610
 Variable       Old X    -DE/DX   Delta X   Delta X   Delta X     New X
                                 (Linear)    (Quad)   (Total)
    R1        2.19434   0.10135   0.00000   0.05961   0.05961   2.25394
    R2        2.71441   0.02503   0.00000   0.04211   0.04211   2.75652
    R3        2.65150   0.00961   0.00000   0.01359   0.01363   2.66513
    R4        2.67046   0.03510   0.00000   0.05605   0.05619   2.72665
    R5        2.63105   0.03164   0.00000   0.04448   0.04437   2.67542
    R6        2.05814   0.00715   0.00000   0.01354   0.01354   2.07168
    R7        2.63178   0.00280   0.00000   0.00313   0.00298   2.63476
    R8        2.05520   0.00801   0.00000   0.01509   0.01509   2.07029
    R9        2.64858   0.03884   0.00000   0.05970   0.05966   2.70824
   R10        2.05780   0.00917   0.00000   0.01735   0.01735   2.07514
   R11        2.67472   0.05326   0.00000   0.08752   0.08754   2.76226
   R12        2.65121   0.02151   0.00000   0.03321   0.03284   2.68405
   R13        2.65950   0.04168   0.00000   0.06488   0.06515   2.72465
   R14        2.63904   0.01470   0.00000   0.02132   0.02169   2.66073
   R15        2.63349   0.05632   0.00000   0.08175   0.08185   2.71534
   R16        2.05606   0.01193   0.00000   0.02249   0.02249   2.07855
   R17        2.64288   0.01225   0.00000   0.01763   0.01735   2.66023
   R18        2.71186   0.02735   0.00000   0.04583   0.04583   2.75769
   R19        2.05969   0.00490   0.00000   0.00928   0.00928   2.06897
   R20        2.18946   0.11133   0.00000   0.06466   0.06466   2.25412
    A1        2.06245   0.00133   0.00000   0.00307   0.00299   2.06545
    A2        2.12176  -0.01041   0.00000  -0.02611  -0.02619   2.09557
    A3        2.09898   0.00908   0.00000   0.02304   0.02319   2.12217
    A4        2.10078   0.00291   0.00000   0.00292   0.00282   2.10360
    A5        2.10320  -0.00376   0.00000  -0.00946  -0.00940   2.09379
    A6        2.07921   0.00085   0.00000   0.00653   0.00658   2.08579
    A7        2.09176   0.00401   0.00000   0.00590   0.00561   2.09737
    A8        2.09896  -0.00301   0.00000  -0.00645  -0.00630   2.09266
    A9        2.09247  -0.00100   0.00000   0.00055   0.00069   2.09316
   A10        2.10893  -0.00066   0.00000  -0.00138  -0.00161   2.10732
   A11        2.07264   0.00153   0.00000   0.00485   0.00496   2.07760
   A12        2.10161  -0.00087   0.00000  -0.00347  -0.00336   2.09826
   A13        2.09108   0.00220   0.00000   0.00932   0.00963   2.10071
   A14        2.09963   0.00631   0.00000   0.01132   0.01157   2.11120
   A15        2.09248  -0.00851   0.00000  -0.02064  -0.02120   2.07128
   A16        2.07484  -0.01755   0.00000  -0.03980  -0.03964   2.03520
   A17        2.14814  -0.01746   0.00000  -0.04794  -0.04815   2.09999
   A18        2.06020   0.03501   0.00000   0.08774   0.08779   2.14799
   A19        2.12571  -0.05056   0.00000  -0.12509  -0.12407   2.00164
   A20        2.08895   0.02818   0.00000   0.07404   0.07449   2.16345
   A21        2.08002  -0.00585   0.00000  -0.00842  -0.00865   2.07138
   A22        2.11421  -0.02233   0.00000  -0.06562  -0.06585   2.04836
   A23        2.08759   0.00503   0.00000   0.00922   0.00898   2.09657
   A24        2.11406   0.00187   0.00000   0.00629   0.00641   2.12047
   A25        2.08153  -0.00690   0.00000  -0.01551  -0.01539   2.06614
   A26        2.11143  -0.00914   0.00000  -0.02527  -0.02600   2.08544
   A27        2.09067   0.00273   0.00000   0.00624   0.00661   2.09728
   A28        2.08109   0.00641   0.00000   0.01902   0.01939   2.10047
   A29        3.16946   0.00518   0.00000   0.04938   0.04938   3.21884
   A30        3.11189   0.01009   0.00000   0.06885   0.06885   3.18074
   A31        3.14148   0.00000   0.00000   0.00000   0.00000   3.14148
   A32        3.14178   0.00000   0.00000  -0.00002  -0.00002   3.14177
    D1       -3.14111  -0.00001   0.00000  -0.00009  -0.00009  -3.14120
    D2        0.00028   0.00000   0.00000  -0.00004  -0.00004   0.00024
    D3        0.00030  -0.00001   0.00000  -0.00006  -0.00006   0.00023
    D4       -3.14149   0.00000   0.00000  -0.00001  -0.00001  -3.14151
    D5        3.14138   0.00001   0.00000   0.00007   0.00007   3.14145
    D6       -0.00008   0.00000   0.00000   0.00003   0.00003  -0.00005
    D7       -0.00002   0.00000   0.00000   0.00004   0.00004   0.00001
    D8       -3.14148   0.00000   0.00000   0.00000   0.00000  -3.14148
    D9       -0.00021   0.00000   0.00000   0.00002   0.00002  -0.00019
   D10        3.14123   0.00001   0.00000   0.00008   0.00008   3.14131
   D11        3.14157   0.00000   0.00000  -0.00002  -0.00002   3.14155
   D12       -0.00017   0.00000   0.00000   0.00003   0.00003  -0.00014
   D13       -0.00015   0.00000   0.00000   0.00004   0.00004  -0.00011
   D14        3.14126   0.00001   0.00000   0.00011   0.00011   3.14138
   D15       -3.14159   0.00000   0.00000  -0.00001  -0.00001   3.14158
   D16       -0.00018   0.00001   0.00000   0.00006   0.00006  -0.00012
   D17        0.00042  -0.00001   0.00000  -0.00006  -0.00006   0.00036
   D18       -3.14150   0.00001   0.00000   0.00007   0.00008  -3.14143
   D19       -3.14099  -0.00001   0.00000  -0.00014  -0.00014  -3.14112
   D20        0.00027   0.00000   0.00000   0.00000   0.00000   0.00027
   D21       -0.00033   0.00000   0.00000   0.00002   0.00002  -0.00031
   D22        3.14113   0.00001   0.00000   0.00006   0.00005   3.14119
   D23        3.14159  -0.00001   0.00000  -0.00012  -0.00012   3.14148
   D24       -0.00013  -0.00001   0.00000  -0.00009  -0.00009  -0.00021
   D25       -3.14129  -0.00001   0.00000  -0.00008  -0.00009  -3.14138
   D26       -0.00001   0.00000   0.00000  -0.00001  -0.00001  -0.00002
   D27       -0.00003   0.00001   0.00000   0.00006   0.00005   0.00002
   D28        3.14125   0.00001   0.00000   0.00013   0.00013   3.14138
   D29        3.14159   0.00001   0.00000   0.00008   0.00008  -3.14152
   D30        0.00013   0.00001   0.00000   0.00005   0.00005   0.00017
   D31        0.00003   0.00000   0.00000   0.00001   0.00001   0.00005
   D32       -3.14132   0.00000   0.00000  -0.00003  -0.00003  -3.14135
   D33       -0.00019   0.00000   0.00000  -0.00004  -0.00004  -0.00023
   D34       -3.14125  -0.00001   0.00000  -0.00013  -0.00013  -3.14138
   D35        3.14116   0.00000   0.00000   0.00001   0.00001   3.14117
   D36        0.00010  -0.00001   0.00000  -0.00008  -0.00008   0.00002
   D37        0.00019   0.00000   0.00000  -0.00001  -0.00001   0.00019
   D38       -3.14109  -0.00001   0.00000  -0.00008  -0.00008  -3.14117
   D39        3.14126   0.00001   0.00000   0.00009   0.00009   3.14135
   D40       -0.00003   0.00000   0.00000   0.00002   0.00002  -0.00001
         Item               Value     Threshold  Converged?
 Maximum Force            0.111328     0.000450     NO 
 RMS     Force            0.021680     0.000300     NO 
 Maximum Displacement     0.199596     0.001800     NO 
 RMS     Displacement     0.045060     0.001200     NO 
 Predicted change in Energy=-3.464107D-02
 GradGradGradGradGradGradGradGradGradGradGradGradGradGradGradGradGradGrad

                          Input orientation:                          
 ---------------------------------------------------------------------
 Center     Atomic      Atomic             Coordinates (Angstroms)
 Number     Number       Type             X           Y           Z
 ---------------------------------------------------------------------
      1          7           0        1.090362    0.060658    0.018629
      2          6           0        2.280734   -0.014390    0.019310
      3          6           0        3.739274    0.006447    0.020028
      4          6           0        4.390989    1.257163    0.020517
      5          6           0        5.804815    1.331367    0.020743
      6          6           0        6.567745    0.164368    0.020712
      7          6           0        5.937601   -1.122801    0.020585
      8          6           0        4.479945   -1.231823    0.020031
      9          6           0        3.785483   -2.495382    0.019390
     10          6           0        4.623404   -3.626907    0.019560
     11          6           0        6.058859   -3.562618    0.020361
     12          6           0        6.710193   -2.314629    0.020755
     13          7           0        7.504974   -5.785212    0.019953
     14          6           0        6.876131   -4.771603    0.020234
     15          1           0        3.801769    2.181641    0.020585
     16          1           0        6.300411    2.308410    0.020851
     17          1           0        7.663004    0.243585    0.020683
     18          1           0        4.162077   -4.625407    0.018865
     19          1           0        7.803750   -2.261377    0.020968
 ---------------------------------------------------------------------
                    Distance matrix (angstroms):
                    1          2          3          4          5
     1  N    0.000000
     2  C    1.192736   0.000000
     3  C    2.649467   1.458689   0.000000
     4  C    3.510808   2.463742   1.410327   0.000000
     5  C    4.882702   3.772295   2.453951   1.415772   0.000000
     6  C    5.478366   4.290737   2.832877   2.435666   1.394256
     7  C    4.989620   3.821158   2.471405   2.838351   2.457757
     8  C    3.627642   2.513697   1.442882   2.490575   2.885346
     9  C    3.714435   2.901653   2.502256   3.801084   4.326860
    10  C    5.106910   4.305622   3.739379   4.889597   5.097079
    11  C    6.149317   5.183063   4.256607   5.100204   4.900574
    12  C    6.101188   4.991113   3.770114   4.258686   3.756727
    13  N    8.678793   7.784283   6.908242   7.700126   7.316846
    14  C    7.538294   6.614284   5.715736   6.520886   6.196286
    15  H    3.442427   2.671348   2.176091   1.096285   2.176042
    16  H    5.674241   4.642543   3.443611   2.179682   1.095549
    17  H    6.575188   5.388449   3.930889   3.425408   2.153169
    18  H    5.603092   4.980053   4.651112   5.887023   6.179138
    19  H    7.103621   5.962605   4.654352   4.901740   4.111392
                    6          7          8          9         10
     6  C    0.000000
     7  C    1.433138   0.000000
     8  C    2.511625   1.461727   0.000000
     9  C    3.849059   2.552566   1.441825   0.000000
    10  C    4.260778   2.828014   2.399377   1.407999   0.000000
    11  C    3.761567   2.442829   2.815239   2.511420   1.436894
    12  C    2.483086   1.420336   2.479208   2.930290   2.465109
    13  N    6.022947   4.918814   5.466639   4.965641   3.600239
    14  C    4.945595   3.767572   4.274547   3.838396   2.526877
    15  H    3.423451   3.934605   3.480181   4.677052   5.866372
    16  H    2.160645   3.450339   3.980872   5.422295   6.167685
    17  H    1.098119   2.200914   3.508374   4.747326   4.921369
    18  H    5.359961   3.926925   3.408439   2.163060   1.099921
    19  H    2.722488   2.186062   3.479606   4.025075   3.461109
                   11         12         13         14         15
    11  C    0.000000
    12  C    1.407733   0.000000
    13  N    2.651636   3.560424   0.000000
    14  C    1.459308   2.462571   1.192831   0.000000
    15  H    6.171788   5.354939   8.785469   7.602585   0.000000
    16  H    5.875995   4.641165   8.182767   7.103382   2.501856
    17  H    4.130431   2.729891   6.030867   5.076542   4.320324
    18  H    2.174237   3.439854   3.538376   2.717989   6.816578
    19  H    2.176666   1.094853   3.536479   2.676138   5.979654
                   16         17         18         19
    16  H    0.000000
    17  H    2.473896   0.000000
    18  H    7.256052   5.996964   0.000000
    19  H    4.810715   2.508912   4.341708   0.000000
 Stoichiometry    C12H5N2(1-)
 Framework group  C1[X(C12H5N2)]
 Deg. of freedom    51
 Full point group                 C1      NOp   1
 Largest Abelian subgroup         C1      NOp   1
 Largest concise Abelian subgroup C1      NOp   1
                         Standard orientation:                         
 ---------------------------------------------------------------------
 Center     Atomic      Atomic             Coordinates (Angstroms)
 Number     Number       Type             X           Y           Z
 ---------------------------------------------------------------------
      1          7           0        3.515015   -2.390510    0.000250
      2          6           0        2.793735   -1.440577   -0.000001
      3          6           0        2.003910   -0.214220   -0.000171
      4          6           0        2.684966    1.020764   -0.000193
      5          6           0        1.964335    2.239411    0.000121
      6          6           0        0.570118    2.229022    0.000228
      7          6           0       -0.153237    0.991831   -0.000111
      8          6           0        0.562649   -0.282592   -0.000120
      9          6           0       -0.105448   -1.560288    0.000036
     10          6           0       -1.511620   -1.488585   -0.000024
     11          6           0       -2.252478   -0.257409   -0.000278
     12          6           0       -1.573482    0.975748   -0.000206
     13          7           0       -4.903990   -0.282955    0.000270
     14          6           0       -3.711739   -0.245773   -0.000063
     15          1           0        3.781052    1.041621   -0.000315
     16          1           0        2.503848    3.192907    0.000373
     17          1           0        0.029964    3.185107    0.000679
     18          1           0       -2.087968   -2.425413    0.000320
     19          1           0       -2.134321    1.916047   -0.000002
 ---------------------------------------------------------------------
 Rotational constants (GHZ):      1.4392329      0.4570266      0.3468764
 Standard basis: STO-3G (5D, 7F)
 There are    75 symmetry adapted cartesian basis functions of A   symmetry.
 There are    75 symmetry adapted basis functions of A   symmetry.
    75 basis functions,   225 primitive gaussians,    75 cartesian basis functions
    46 alpha electrons       46 beta electrons
       nuclear repulsion energy       694.3016589869 Hartrees.
 NAtoms=   19 NActive=   19 NUniq=   19 SFac= 1.00D+00 NAtFMM=   60 NAOKFM=F Big=F
 Integral buffers will be    131072 words long.
 Raffenetti 2 integral format.
 Two-electron integral symmetry is turned on.
 One-electron integrals computed using PRISM.
 NBasis=    75 RedAO= T EigKep=  1.72D-01  NBF=    75
 NBsUse=    75 1.00D-06 EigRej= -1.00D+00 NBFU=    75
 Initial guess from the checkpoint file:  "/tmp/bnp.472672.sequoia/Gau-23848.chk"
 B after Tr=     0.000000    0.000000    0.000000
         Rot=    1.000000   -0.000001    0.000000   -0.000661 Ang=  -0.08 deg.
 ExpMin= 1.69D-01 ExpMax= 9.91D+01 ExpMxC= 9.91D+01 IAcc=1 IRadAn=         1 AccDes= 0.00D+00
 Harris functional with IExCor=  402 and IRadAn=       1 diagonalized for initial guess.
 HarFok:  IExCor=  402 AccDes= 0.00D+00 IRadAn=         1 IDoV= 1 UseB2=F ITyADJ=14
 ICtDFT=  3500011 ScaDFX=  1.000000  1.000000  1.000000  1.000000
 FoFCou: FMM=F IPFlag=           0 FMFlag=      100000 FMFlg1=           0
         NFxFlg=           0 DoJE=T BraDBF=F KetDBF=T FulRan=T
         wScrn=  0.000000 ICntrl=     500 IOpCl=  0 I1Cent=   200000004 NGrid=           0
         NMat0=    1 NMatS0=      1 NMatT0=    0 NMatD0=    1 NMtDS0=    0 NMtDT0=    0
 Petite list used in FoFCou.
 Keep R1 ints in memory in canonical form, NReq=4993994.
 Requested convergence on RMS density matrix=1.00D-08 within 128 cycles.
 Requested convergence on MAX density matrix=1.00D-06.
 Requested convergence on             energy=1.00D-06.
 No special actions if energy rises.
 Integral accuracy reduced to 1.0D-05 until final iterations.
 Initial convergence to 1.0D-05 achieved.  Increase integral accuracy.
 SCF Done:  E(RB3LYP) =  -562.508800677     A.U. after   19 cycles
            NFock= 19  Conv=0.42D-08     -V/T= 2.0138
 Calling FoFJK, ICntrl=      2127 FMM=F ISym2X=0 I1Cent= 0 IOpClX= 0 NMat=1 NMatS=1 NMatT=0.
 ***** Axes restored to original set *****
 -------------------------------------------------------------------
 Center     Atomic                   Forces (Hartrees/Bohr)
 Number     Number              X              Y              Z
 -------------------------------------------------------------------
      1        7          -0.017773192    0.001556137   -0.000006216
      2        6           0.010071437   -0.005087705    0.000005153
      3        6           0.009634193    0.014263003    0.000014149
      4        6          -0.009041763   -0.001038136   -0.000007583
      5        6           0.008455297   -0.005591225    0.000001477
      6        6          -0.002264298    0.011103819   -0.000002121
      7        6           0.003536750    0.007684284   -0.000008077
      8        6           0.019064635   -0.010834890    0.000008842
      9        6          -0.037889041   -0.008317047   -0.000007699
     10        6           0.000138985    0.011371964   -0.000007164
     11        6           0.005323392    0.000025170   -0.000020643
     12        6           0.002744433   -0.007081079   -0.000002065
     13        7           0.009588946   -0.016437665   -0.000003979
     14        6          -0.006626353    0.011265963    0.000015327
     15        1          -0.001318039    0.000853133   -0.000004519
     16        1          -0.000183977    0.002107172    0.000002617
     17        1           0.001632580   -0.001851074    0.000006763
     18        1           0.003565342   -0.004898465    0.000004505
     19        1           0.001340672    0.000906642    0.000011235
 -------------------------------------------------------------------
 Cartesian Forces:  Max     0.037889041 RMS     0.008286256

 GradGradGradGradGradGradGradGradGradGradGradGradGradGradGradGradGradGrad
 Berny optimization.
 Using GEDIIS/GDIIS optimizer.
 FormGI is forming the generalized inverse of G from B-inverse, IUseBI=4.
 Internal  Forces:  Max     0.021613934 RMS     0.005455487
 Search for a local minimum.
 Step number   2 out of a maximum of  102
 All quantities printed in internal units (Hartrees-Bohrs-Radians)
 Mixed Optimization -- RFO/linear search
 Update second derivatives using D2CorX and points    1    2
 DE= -3.26D-02 DEPred=-3.46D-02 R= 9.40D-01
 TightC=F SS=  1.41D+00  RLast= 3.00D-01 DXNew= 5.0454D-01 8.9995D-01
 Trust test= 9.40D-01 RLast= 3.00D-01 DXMaxT set to 5.05D-01
 ITU=  1  0
 Use linear search instead of GDIIS.
     Eigenvalues ---    0.01607   0.01620   0.01941   0.01948   0.01981
     Eigenvalues ---    0.02004   0.02053   0.02071   0.02078   0.02113
     Eigenvalues ---    0.02126   0.02137   0.02141   0.02158   0.02161
     Eigenvalues ---    0.02188   0.04885   0.04972   0.15836   0.16000
     Eigenvalues ---    0.16000   0.16000   0.16012   0.22091   0.22375
     Eigenvalues ---    0.23435   0.23833   0.24156   0.24925   0.25000
     Eigenvalues ---    0.25185   0.34820   0.34919   0.34961   0.35061
     Eigenvalues ---    0.35118   0.38829   0.39970   0.40373   0.40999
     Eigenvalues ---    0.41847   0.43291   0.43933   0.45127   0.45456
     Eigenvalues ---    0.45571   0.46156   0.46589   0.50428   1.27612
     Eigenvalues ---    1.33183
 RFO step:  Lambda=-3.53123385D-03 EMin= 1.60717261D-02
 Quartic linear search produced a step of  0.41505.
 Iteration  1 RMS(Cart)=  0.02841593 RMS(Int)=  0.00076512
 Iteration  2 RMS(Cart)=  0.00159847 RMS(Int)=  0.00024870
 Iteration  3 RMS(Cart)=  0.00000070 RMS(Int)=  0.00024870
 Variable       Old X    -DE/DX   Delta X   Delta X   Delta X     New X
                                 (Linear)    (Quad)   (Total)
    R1        2.25394   0.01784   0.02474  -0.00949   0.01525   2.26919
    R2        2.75652   0.00775   0.01748   0.00546   0.02294   2.77946
    R3        2.66513  -0.00319   0.00566  -0.01705  -0.01134   2.65379
    R4        2.72665   0.00845   0.02332  -0.00092   0.02253   2.74918
    R5        2.67542   0.00681   0.01842  -0.00293   0.01541   2.69083
    R6        2.07168   0.00143   0.00562  -0.00130   0.00432   2.07600
    R7        2.63476  -0.00232   0.00124  -0.00899  -0.00787   2.62689
    R8        2.07029   0.00180   0.00626  -0.00066   0.00560   2.07589
    R9        2.70824   0.00695   0.02476  -0.00878   0.01593   2.72417
   R10        2.07514   0.00149   0.00720  -0.00301   0.00419   2.07933
   R11        2.76226   0.00653   0.03633  -0.02184   0.01452   2.77678
   R12        2.68405   0.00551   0.01363   0.00017   0.01333   2.69737
   R13        2.72465   0.01793   0.02704   0.02444   0.05185   2.77651
   R14        2.66073   0.00808   0.00900   0.01362   0.02307   2.68380
   R15        2.71534   0.01054   0.03397  -0.01091   0.02314   2.73847
   R16        2.07855   0.00295   0.00934   0.00012   0.00946   2.08800
   R17        2.66023   0.00061   0.00720  -0.00807  -0.00126   2.65897
   R18        2.75769   0.00594   0.01902  -0.00287   0.01616   2.77385
   R19        2.06897   0.00138   0.00385   0.00074   0.00460   2.07357
   R20        2.25412   0.01902   0.02684  -0.01092   0.01591   2.27004
    A1        2.06545   0.00151   0.00124   0.00631   0.00748   2.07293
    A2        2.09557  -0.00695  -0.01087  -0.02530  -0.03624   2.05933
    A3        2.12217   0.00543   0.00963   0.01898   0.02876   2.15093
    A4        2.10360  -0.00182   0.00117  -0.01431  -0.01320   2.09039
    A5        2.09379   0.00023  -0.00390   0.00580   0.00192   2.09572
    A6        2.08579   0.00159   0.00273   0.00852   0.01128   2.09707
    A7        2.09737   0.00047   0.00233  -0.00207   0.00002   2.09739
    A8        2.09266  -0.00139  -0.00262  -0.00701  -0.00951   2.08315
    A9        2.09316   0.00092   0.00029   0.00908   0.00948   2.10264
   A10        2.10732   0.00127  -0.00067   0.00864   0.00777   2.11509
   A11        2.07760   0.00140   0.00206   0.01095   0.01311   2.09071
   A12        2.09826  -0.00267  -0.00139  -0.01959  -0.02088   2.07738
   A13        2.10071   0.00041   0.00400  -0.00137   0.00294   2.10365
   A14        2.11120   0.00347   0.00480   0.01173   0.01686   2.12805
   A15        2.07128  -0.00388  -0.00880  -0.01036  -0.01980   2.05148
   A16        2.03520  -0.00576  -0.01645  -0.00987  -0.02628   2.00892
   A17        2.09999  -0.00922  -0.01998  -0.02857  -0.04879   2.05120
   A18        2.14799   0.01498   0.03644   0.03845   0.07507   2.22307
   A19        2.00164  -0.02161  -0.05149  -0.05198  -0.10209   1.89955
   A20        2.16345   0.01069   0.03092   0.02481   0.05622   2.21967
   A21        2.07138   0.00015  -0.00359   0.01904   0.01521   2.08659
   A22        2.04836  -0.01085  -0.02733  -0.04386  -0.07143   1.97693
   A23        2.09657   0.00225   0.00373   0.00346   0.00677   2.10334
   A24        2.12047  -0.00231   0.00266  -0.01416  -0.01129   2.10919
   A25        2.06614   0.00006  -0.00639   0.01070   0.00452   2.07066
   A26        2.08544  -0.00243  -0.01079  -0.00439  -0.01618   2.06926
   A27        2.09728   0.00035   0.00274  -0.00173   0.00151   2.09878
   A28        2.10047   0.00209   0.00805   0.00612   0.01467   2.11514
   A29        3.21884   0.00098   0.02050   0.01282   0.03331   3.25216
   A30        3.18074   0.00116   0.02858  -0.01939   0.00918   3.18993
   A31        3.14148   0.00001   0.00000   0.00056   0.00056   3.14204
   A32        3.14177   0.00000  -0.00001  -0.00002  -0.00002   3.14174
    D1       -3.14120  -0.00001  -0.00004  -0.00030  -0.00034  -3.14154
    D2        0.00024   0.00000  -0.00002  -0.00017  -0.00019   0.00006
    D3        0.00023  -0.00001  -0.00003  -0.00027  -0.00030  -0.00006
    D4       -3.14151   0.00000  -0.00001  -0.00014  -0.00014   3.14154
    D5        3.14145   0.00000   0.00003   0.00018   0.00020  -3.14153
    D6       -0.00005   0.00000   0.00001   0.00008   0.00010   0.00005
    D7        0.00001   0.00000   0.00002   0.00014   0.00015   0.00017
    D8       -3.14148   0.00000   0.00000   0.00004   0.00005  -3.14144
    D9       -0.00019   0.00000   0.00001   0.00016   0.00017  -0.00002
   D10        3.14131   0.00001   0.00003   0.00020   0.00023   3.14154
   D11        3.14155   0.00000  -0.00001   0.00003   0.00002   3.14157
   D12       -0.00014   0.00000   0.00001   0.00007   0.00008  -0.00006
   D13       -0.00011   0.00000   0.00002   0.00008   0.00009  -0.00002
   D14        3.14138   0.00000   0.00005   0.00009   0.00014   3.14152
   D15        3.14158   0.00000  -0.00001   0.00003   0.00003  -3.14158
   D16       -0.00012   0.00000   0.00003   0.00005   0.00008  -0.00004
   D17        0.00036   0.00000  -0.00003  -0.00020  -0.00023   0.00013
   D18       -3.14143   0.00000   0.00003  -0.00002   0.00002  -3.14141
   D19       -3.14112  -0.00001  -0.00006  -0.00022  -0.00028  -3.14140
   D20        0.00027   0.00000   0.00000  -0.00004  -0.00003   0.00024
   D21       -0.00031   0.00000   0.00001   0.00010   0.00011  -0.00020
   D22        3.14119   0.00000   0.00002   0.00019   0.00022   3.14140
   D23        3.14148   0.00000  -0.00005  -0.00009  -0.00013   3.14135
   D24       -0.00021   0.00000  -0.00004   0.00001  -0.00002  -0.00023
   D25       -3.14138   0.00000  -0.00004   0.00004   0.00000  -3.14137
   D26       -0.00002   0.00000   0.00000   0.00025   0.00024   0.00022
   D27        0.00002   0.00000   0.00002   0.00022   0.00024   0.00027
   D28        3.14138   0.00001   0.00005   0.00043   0.00048  -3.14132
   D29       -3.14152   0.00000   0.00003  -0.00014  -0.00011   3.14156
   D30        0.00017   0.00000   0.00002  -0.00024  -0.00022  -0.00005
   D31        0.00005   0.00000   0.00001   0.00026   0.00026   0.00031
   D32       -3.14135   0.00000  -0.00001  -0.00023  -0.00026   3.14157
   D33       -0.00023   0.00000  -0.00002  -0.00004  -0.00006  -0.00029
   D34       -3.14138  -0.00001  -0.00005  -0.00066  -0.00072   3.14109
   D35        3.14117   0.00001   0.00001   0.00045   0.00044  -3.14157
   D36        0.00002   0.00000  -0.00003  -0.00017  -0.00021  -0.00019
   D37        0.00019   0.00000   0.00000  -0.00021  -0.00022  -0.00004
   D38       -3.14117  -0.00001  -0.00003  -0.00042  -0.00046   3.14155
   D39        3.14135   0.00001   0.00004   0.00038   0.00042  -3.14142
   D40       -0.00001   0.00000   0.00001   0.00017   0.00018   0.00017
         Item               Value     Threshold  Converged?
 Maximum Force            0.021614     0.000450     NO 
 RMS     Force            0.005455     0.000300     NO 
 Maximum Displacement     0.131846     0.001800     NO 
 RMS     Displacement     0.029058     0.001200     NO 
 Predicted change in Energy=-4.058188D-03
 GradGradGradGradGradGradGradGradGradGradGradGradGradGradGradGradGradGrad

                          Input orientation:                          
 ---------------------------------------------------------------------
 Center     Atomic      Atomic             Coordinates (Angstroms)
 Number     Number       Type             X           Y           Z
 ---------------------------------------------------------------------
      1          7           0        1.094888    0.029978    0.019567
      2          6           0        2.292790   -0.053493    0.019435
      3          6           0        3.762381    0.006787    0.019907
      4          6           0        4.387261    1.264425    0.020313
      5          6           0        5.808757    1.347617    0.020711
      6          6           0        6.576425    0.188724    0.020725
      7          6           0        5.960516   -1.114644    0.020360
      8          6           0        4.497240   -1.248774    0.019793
      9          6           0        3.715713   -2.492942    0.019152
     10          6           0        4.610027   -3.596206    0.019095
     11          6           0        6.058408   -3.549405    0.019934
     12          6           0        6.733290   -2.314751    0.020590
     13          7           0        7.450700   -5.825708    0.020588
     14          6           0        6.851365   -4.784648    0.020392
     15          1           0        3.780873    2.180477    0.020327
     16          1           0        6.290422    2.334900    0.020978
     17          1           0        7.674426    0.260344    0.020964
     18          1           0        4.206530   -4.624820    0.018662
     19          1           0        7.829508   -2.266373    0.021268
 ---------------------------------------------------------------------
                    Distance matrix (angstroms):
                    1          2          3          4          5
     1  N    0.000000
     2  C    1.200806   0.000000
     3  C    2.667594   1.470827   0.000000
     4  C    3.516188   2.474615   1.404325   0.000000
     5  C    4.894561   3.784856   2.446524   1.423928   0.000000
     6  C    5.483835   4.290478   2.819919   2.439175   1.390089
     7  C    4.998449   3.818148   2.467672   2.852210   2.466934
     8  C    3.634722   2.507648   1.454802   2.515604   2.908835
     9  C    3.637836   2.824115   2.500165   3.816908   4.373869
    10  C    5.050288   4.233250   3.701360   4.865734   5.087076
    11  C    6.119519   5.138218   4.232994   5.095654   4.903381
    12  C    6.106499   4.983105   3.770390   4.279528   3.777261
    13  N    8.642072   7.740963   6.900847   7.723642   7.358843
    14  C    7.504509   6.569965   5.700848   6.531699   6.220266
    15  H    3.440808   2.684216   2.173769   1.098570   2.192251
    16  H    5.683857   4.656767   3.436728   2.183560   1.098512
    17  H    6.583569   5.390779   3.920253   3.437096   2.159371
    18  H    5.599059   4.955748   4.652855   5.892018   6.183619
    19  H    7.115359   5.962558   4.659268   4.931085   4.140575
                    6          7          8          9         10
     6  C    0.000000
     7  C    1.441566   0.000000
     8  C    2.527729   1.469411   0.000000
     9  C    3.921098   2.634168   1.469265   0.000000
    10  C    4.265257   2.825238   2.350140   1.420207   0.000000
    11  C    3.773851   2.436728   2.780315   2.569890   1.449137
    12  C    2.508385   1.427388   2.477141   3.022834   2.479995
    13  N    6.077643   4.941130   5.447133   5.005742   3.611109
    14  C    4.980966   3.776578   4.247860   3.883842   2.536926
    15  H    3.432519   3.950780   3.503276   4.673873   5.835886
    16  H    2.165149   3.465284   4.007270   5.471488   6.164555
    17  H    1.100334   2.197290   3.517378   4.822032   4.925802
    18  H    5.365316   3.924003   3.388540   2.187648   1.104924
    19  H    2.756396   2.195362   3.484182   4.120030   3.483320
                   11         12         13         14         15
    11  C    0.000000
    12  C    1.407066   0.000000
    13  N    2.668339   3.583503   0.000000
    14  C    1.467858   2.472718   1.201253   0.000000
    15  H    6.165931   5.378089   8.807191   7.611891   0.000000
    16  H    5.888877   4.670694   8.242679   7.141612   2.514295
    17  H    4.138321   2.741688   6.090162   5.111690   4.341274
    18  H    2.141489   3.423586   3.459303   2.649661   6.818596
    19  H    2.187000   1.097285   3.579435   2.701569   6.013811
                   16         17         18         19
    16  H    0.000000
    17  H    2.493842   0.000000
    18  H    7.265006   5.990921   0.000000
    19  H    4.851855   2.531472   4.322991   0.000000
 Stoichiometry    C12H5N2(1-)
 Framework group  C1[X(C12H5N2)]
 Deg. of freedom    51
 Full point group                 C1      NOp   1
 Largest Abelian subgroup         C1      NOp   1
 Largest concise Abelian subgroup C1      NOp   1
                         Standard orientation:                         
 ---------------------------------------------------------------------
 Center     Atomic      Atomic             Coordinates (Angstroms)
 Number     Number       Type             X           Y           Z
 ---------------------------------------------------------------------
      1          7           0        3.467720   -2.427843   -0.000499
      2          6           0        2.743075   -1.470333   -0.000005
      3          6           0        1.990309   -0.206737   -0.000009
      4          6           0        2.701920    1.003940   -0.000036
      5          6           0        1.994629    2.239783    0.000022
      6          6           0        0.604571    2.249211    0.000077
      7          6           0       -0.150238    1.021051    0.000058
      8          6           0        0.537234   -0.277621    0.000150
      9          6           0       -0.077479   -1.612112    0.000364
     10          6           0       -1.490173   -1.466225    0.000538
     11          6           0       -2.242634   -0.227758    0.000158
     12          6           0       -1.577599    1.012228   -0.000106
     13          7           0       -4.909825   -0.306015   -0.000396
     14          6           0       -3.710449   -0.238884   -0.000234
     15          1           0        3.800468    0.996839   -0.000105
     16          1           0        2.558120    3.182760    0.000051
     17          1           0        0.064404    3.207832    0.000192
     18          1           0       -2.131001   -2.366335    0.000694
     19          1           0       -2.136255    1.956653   -0.000435
 ---------------------------------------------------------------------
 Rotational constants (GHZ):      1.4120087      0.4594649      0.3466618
 Standard basis: STO-3G (5D, 7F)
 There are    75 symmetry adapted cartesian basis functions of A   symmetry.
 There are    75 symmetry adapted basis functions of A   symmetry.
    75 basis functions,   225 primitive gaussians,    75 cartesian basis functions
    46 alpha electrons       46 beta electrons
       nuclear repulsion energy       692.2628906998 Hartrees.
 NAtoms=   19 NActive=   19 NUniq=   19 SFac= 1.00D+00 NAtFMM=   60 NAOKFM=F Big=F
 Integral buffers will be    131072 words long.
 Raffenetti 2 integral format.
 Two-electron integral symmetry is turned on.
 One-electron integrals computed using PRISM.
 NBasis=    75 RedAO= T EigKep=  1.76D-01  NBF=    75
 NBsUse=    75 1.00D-06 EigRej= -1.00D+00 NBFU=    75
 Initial guess from the checkpoint file:  "/tmp/bnp.472672.sequoia/Gau-23848.chk"
 B after Tr=     0.000000    0.000000    0.000000
         Rot=    0.999996    0.000000    0.000000    0.002910 Ang=   0.33 deg.
 ExpMin= 1.69D-01 ExpMax= 9.91D+01 ExpMxC= 9.91D+01 IAcc=1 IRadAn=         1 AccDes= 0.00D+00
 Harris functional with IExCor=  402 and IRadAn=       1 diagonalized for initial guess.
 HarFok:  IExCor=  402 AccDes= 0.00D+00 IRadAn=         1 IDoV= 1 UseB2=F ITyADJ=14
 ICtDFT=  3500011 ScaDFX=  1.000000  1.000000  1.000000  1.000000
 FoFCou: FMM=F IPFlag=           0 FMFlag=      100000 FMFlg1=           0
         NFxFlg=           0 DoJE=T BraDBF=F KetDBF=T FulRan=T
         wScrn=  0.000000 ICntrl=     500 IOpCl=  0 I1Cent=   200000004 NGrid=           0
         NMat0=    1 NMatS0=      1 NMatT0=    0 NMatD0=    1 NMtDS0=    0 NMtDT0=    0
 Petite list used in FoFCou.
 Keep R1 ints in memory in canonical form, NReq=4993994.
 Requested convergence on RMS density matrix=1.00D-08 within 128 cycles.
 Requested convergence on MAX density matrix=1.00D-06.
 Requested convergence on             energy=1.00D-06.
 No special actions if energy rises.
 Integral accuracy reduced to 1.0D-05 until final iterations.
 Initial convergence to 1.0D-05 achieved.  Increase integral accuracy.
 SCF Done:  E(RB3LYP) =  -562.513324563     A.U. after   14 cycles
            NFock= 14  Conv=0.54D-08     -V/T= 2.0140
 Calling FoFJK, ICntrl=      2127 FMM=F ISym2X=0 I1Cent= 0 IOpClX= 0 NMat=1 NMatS=1 NMatT=0.
 ***** Axes restored to original set *****
 -------------------------------------------------------------------
 Center     Atomic                   Forces (Hartrees/Bohr)
 Number     Number              X              Y              Z
 -------------------------------------------------------------------
      1        7           0.000474543   -0.000401891   -0.000014699
      2        6          -0.001696524   -0.000569209    0.000028381
      3        6           0.000954808    0.002017333   -0.000018381
      4        6          -0.002682335   -0.000523508    0.000002935
      5        6           0.002224420   -0.000139309   -0.000000887
      6        6          -0.001065792    0.001008197    0.000000004
      7        6          -0.003323395   -0.000627844    0.000001891
      8        6           0.006452487    0.005760776    0.000004062
      9        6          -0.002944362   -0.001296372   -0.000005680
     10        6           0.001798640   -0.005833686    0.000011819
     11        6           0.000996027    0.002804331    0.000016908
     12        6           0.001305856   -0.001129894   -0.000007620
     13        7          -0.000459673    0.001559908    0.000003745
     14        6          -0.001241751   -0.001540023   -0.000013999
     15        1           0.000644278   -0.000365149   -0.000001283
     16        1          -0.000075686   -0.000464123   -0.000000007
     17        1          -0.000372834   -0.000435574    0.000001905
     18        1          -0.000735800    0.000217499   -0.000007537
     19        1          -0.000252909   -0.000041461   -0.000001557
 -------------------------------------------------------------------
 Cartesian Forces:  Max     0.006452487 RMS     0.001763109

 GradGradGradGradGradGradGradGradGradGradGradGradGradGradGradGradGradGrad
 Berny optimization.
 Using GEDIIS/GDIIS optimizer.
 FormGI is forming the generalized inverse of G from B-inverse, IUseBI=4.
 Internal  Forces:  Max     0.004678027 RMS     0.000972902
 Search for a local minimum.
 Step number   3 out of a maximum of  102
 All quantities printed in internal units (Hartrees-Bohrs-Radians)
 Mixed Optimization -- En-DIIS/RFO-DIIS
 Update second derivatives using D2CorX and points    1    2    3
 DE= -4.52D-03 DEPred=-4.06D-03 R= 1.11D+00
 TightC=F SS=  1.41D+00  RLast= 2.01D-01 DXNew= 8.4853D-01 6.0236D-01
 Trust test= 1.11D+00 RLast= 2.01D-01 DXMaxT set to 6.02D-01
 ITU=  1  1  0
 Use linear search instead of GDIIS.
     Eigenvalues ---    0.01607   0.01620   0.01939   0.01949   0.01982
     Eigenvalues ---    0.02005   0.02052   0.02071   0.02079   0.02113
     Eigenvalues ---    0.02128   0.02137   0.02143   0.02158   0.02161
     Eigenvalues ---    0.02188   0.04885   0.04968   0.15788   0.16000
     Eigenvalues ---    0.16000   0.16003   0.16077   0.20657   0.22097
     Eigenvalues ---    0.23654   0.23727   0.23922   0.24948   0.25014
     Eigenvalues ---    0.25876   0.34820   0.34924   0.34968   0.35035
     Eigenvalues ---    0.35124   0.38766   0.39029   0.40348   0.40837
     Eigenvalues ---    0.41486   0.43308   0.43639   0.45027   0.45453
     Eigenvalues ---    0.45540   0.46134   0.46557   0.50834   1.27568
     Eigenvalues ---    1.34905
 RFO step:  Lambda=-2.88412018D-04 EMin= 1.60717545D-02
 Quartic linear search produced a step of -0.00230.
 Iteration  1 RMS(Cart)=  0.01488356 RMS(Int)=  0.00034747
 Iteration  2 RMS(Cart)=  0.00036009 RMS(Int)=  0.00000162
 Iteration  3 RMS(Cart)=  0.00000009 RMS(Int)=  0.00000162
 Variable       Old X    -DE/DX   Delta X   Delta X   Delta X     New X
                                 (Linear)    (Quad)   (Total)
    R1        2.26919  -0.00050  -0.00004   0.00090   0.00087   2.27006
    R2        2.77946   0.00126  -0.00005   0.00422   0.00416   2.78362
    R3        2.65379  -0.00114   0.00003  -0.00210  -0.00207   2.65172
    R4        2.74918   0.00028  -0.00005   0.00193   0.00188   2.75106
    R5        2.69083   0.00166  -0.00004   0.00488   0.00484   2.69568
    R6        2.07600  -0.00066  -0.00001  -0.00154  -0.00155   2.07445
    R7        2.62689  -0.00059   0.00002  -0.00118  -0.00116   2.62573
    R8        2.07589  -0.00045  -0.00001  -0.00089  -0.00091   2.07498
    R9        2.72417  -0.00026  -0.00004   0.00061   0.00057   2.72473
   R10        2.07933  -0.00040  -0.00001  -0.00072  -0.00073   2.07860
   R11        2.77678  -0.00362  -0.00003  -0.00690  -0.00694   2.76985
   R12        2.69737   0.00146  -0.00003   0.00367   0.00364   2.70101
   R13        2.77651   0.00468  -0.00012   0.01236   0.01223   2.78874
   R14        2.68380   0.00251  -0.00005   0.00639   0.00634   2.69014
   R15        2.73847  -0.00037  -0.00005   0.00135   0.00130   2.73977
   R16        2.08800   0.00007  -0.00002   0.00076   0.00074   2.08874
   R17        2.65897   0.00015   0.00000   0.00057   0.00058   2.65955
   R18        2.77385  -0.00094  -0.00004  -0.00118  -0.00122   2.77263
   R19        2.07357  -0.00025  -0.00001  -0.00048  -0.00049   2.07308
   R20        2.27004  -0.00158  -0.00004   0.00018   0.00014   2.27018
    A1        2.07293   0.00187  -0.00002   0.00746   0.00744   2.08037
    A2        2.05933  -0.00152   0.00008  -0.00703  -0.00695   2.05238
    A3        2.15093  -0.00035  -0.00007  -0.00043  -0.00049   2.15043
    A4        2.09039  -0.00096   0.00003  -0.00331  -0.00328   2.08711
    A5        2.09572   0.00083   0.00000   0.00357   0.00357   2.09928
    A6        2.09707   0.00013  -0.00003  -0.00026  -0.00028   2.09679
    A7        2.09739  -0.00009   0.00000   0.00050   0.00050   2.09789
    A8        2.08315   0.00018   0.00002   0.00044   0.00047   2.08362
    A9        2.10264  -0.00010  -0.00002  -0.00094  -0.00096   2.10168
   A10        2.11509   0.00060  -0.00002   0.00234   0.00231   2.11740
   A11        2.09071   0.00013  -0.00003   0.00174   0.00171   2.09242
   A12        2.07738  -0.00073   0.00005  -0.00407  -0.00402   2.07336
   A13        2.10365  -0.00089  -0.00001  -0.00382  -0.00383   2.09982
   A14        2.12805   0.00037  -0.00004   0.00305   0.00301   2.13107
   A15        2.05148   0.00051   0.00005   0.00078   0.00082   2.05230
   A16        2.00892   0.00168   0.00006   0.00473   0.00479   2.01371
   A17        2.05120  -0.00104   0.00011  -0.00508  -0.00497   2.04624
   A18        2.22307  -0.00064  -0.00017   0.00035   0.00017   2.22324
   A19        1.89955   0.00085   0.00023   0.00091   0.00114   1.90069
   A20        2.21967  -0.00224  -0.00013  -0.00668  -0.00681   2.21286
   A21        2.08659   0.00032  -0.00003  -0.00047  -0.00050   2.08609
   A22        1.97693   0.00192   0.00016   0.00715   0.00731   1.98423
   A23        2.10334   0.00145  -0.00002   0.00616   0.00615   2.10949
   A24        2.10919  -0.00227   0.00003  -0.00901  -0.00899   2.10019
   A25        2.07066   0.00082  -0.00001   0.00285   0.00284   2.07350
   A26        2.06926   0.00006   0.00004  -0.00151  -0.00148   2.06779
   A27        2.09878   0.00000   0.00000   0.00073   0.00073   2.09951
   A28        2.11514  -0.00006  -0.00003   0.00078   0.00075   2.11589
   A29        3.25216  -0.00083  -0.00008  -0.04623  -0.04630   3.20585
   A30        3.18993  -0.00086  -0.00002  -0.01459  -0.01461   3.17531
   A31        3.14204  -0.00003   0.00000  -0.00179  -0.00179   3.14025
   A32        3.14174  -0.00001   0.00000  -0.00014  -0.00014   3.14161
    D1       -3.14154   0.00000   0.00000  -0.00008  -0.00008   3.14156
    D2        0.00006   0.00000   0.00000  -0.00010  -0.00010  -0.00004
    D3       -0.00006   0.00000   0.00000   0.00003   0.00003  -0.00003
    D4        3.14154   0.00000   0.00000   0.00001   0.00001   3.14155
    D5       -3.14153   0.00000   0.00000   0.00006   0.00006  -3.14148
    D6        0.00005   0.00000   0.00000   0.00009   0.00009   0.00014
    D7        0.00017   0.00000   0.00000  -0.00005  -0.00006   0.00011
    D8       -3.14144   0.00000   0.00000  -0.00002  -0.00002  -3.14146
    D9       -0.00002   0.00000   0.00000  -0.00001  -0.00001  -0.00003
   D10        3.14154   0.00000   0.00000   0.00000   0.00000   3.14154
   D11        3.14157   0.00000   0.00000   0.00001   0.00001   3.14158
   D12       -0.00006   0.00000   0.00000   0.00002   0.00002  -0.00003
   D13       -0.00002   0.00000   0.00000   0.00001   0.00001  -0.00001
   D14        3.14152   0.00000   0.00000   0.00003   0.00002   3.14154
   D15       -3.14158   0.00000   0.00000   0.00000   0.00000  -3.14158
   D16       -0.00004   0.00000   0.00000   0.00001   0.00001  -0.00003
   D17        0.00013   0.00000   0.00000  -0.00003  -0.00003   0.00010
   D18       -3.14141   0.00000   0.00000  -0.00009  -0.00009  -3.14150
   D19       -3.14140   0.00000   0.00000  -0.00005  -0.00005  -3.14145
   D20        0.00024   0.00000   0.00000  -0.00011  -0.00011   0.00013
[...]
 ! D15   D(16,5,6,7)          -179.9999         -DE/DX =    0.0                 !
 ! D16   D(16,5,6,17)           -0.0001         -DE/DX =    0.0                 !
 ! D17   D(5,6,7,8)              0.0012         -DE/DX =    0.0                 !
 ! D18   D(5,6,7,12)          -179.9985         -DE/DX =    0.0                 !
 ! D19   D(17,6,7,8)          -179.9986         -DE/DX =    0.0                 !
 ! D20   D(17,6,7,12)            0.0018         -DE/DX =    0.0                 !
 ! D21   D(6,7,8,3)             -0.0017         -DE/DX =    0.0                 !
 ! D22   D(6,7,8,9)            179.9976         -DE/DX =    0.0                 !
 ! D23   D(12,7,8,3)           179.998          -DE/DX =    0.0                 !
 ! D24   D(12,7,8,9)            -0.0027         -DE/DX =    0.0                 !
 ! D25   D(6,7,12,11)         -179.9984         -DE/DX =    0.0                 !
 ! D26   D(6,7,12,19)            0.0017         -DE/DX =    0.0                 !
 ! D27   D(8,7,12,11)            0.0019         -DE/DX =    0.0                 !
 ! D28   D(8,7,12,19)         -179.9979         -DE/DX =    0.0                 !
 ! D29   D(3,8,9,10)           179.9998         -DE/DX =    0.0                 !
 ! D30   D(7,8,9,10)             0.0005         -DE/DX =    0.0                 !
 ! D31   D(8,9,10,11)            0.0024         -DE/DX =    0.0                 !
 ! D32   D(8,9,10,18)         -179.9981         -DE/DX =    0.0                 !
 ! D33   D(9,10,11,12)          -0.0032         -DE/DX =    0.0                 !
 ! D34   D(9,10,11,14)         179.9968         -DE/DX =    0.0                 !
 ! D35   D(18,10,11,12)        179.9972         -DE/DX =    0.0                 !
 ! D36   D(18,10,11,14)         -0.0027         -DE/DX =    0.0                 !
 ! D37   D(10,11,12,7)           0.0007         -DE/DX =    0.0                 !
 ! D38   D(10,11,12,19)       -179.9995         -DE/DX =    0.0                 !
 ! D39   D(14,11,12,7)        -179.9994         -DE/DX =    0.0                 !
 ! D40   D(14,11,12,19)          0.0005         -DE/DX =    0.0                 !
 --------------------------------------------------------------------------------
 GradGradGradGradGradGradGradGradGradGradGradGradGradGradGradGradGradGrad

                          Input orientation:                          
 ---------------------------------------------------------------------
 Center     Atomic      Atomic             Coordinates (Angstroms)
 Number     Number       Type             X           Y           Z
 ---------------------------------------------------------------------
      1          7           0        1.097303   -0.014043    0.019008
      2          6           0        2.296516   -0.074900    0.019382
      3          6           0        3.767036    0.013148    0.019881
      4          6           0        4.386372    1.271162    0.020296
      5          6           0        5.811113    1.352456    0.020765
      6          6           0        6.578360    0.194793    0.020821
      7          6           0        5.965233   -1.110625    0.020414
      8          6           0        4.509392   -1.237588    0.019902
      9          6           0        3.717024   -2.485108    0.019394
     10          6           0        4.608404   -3.595664    0.019489
     11          6           0        6.055900   -3.544247    0.020043
     12          6           0        6.736705   -2.313693    0.020497
     13          7           0        7.432200   -5.828930    0.020189
     14          6           0        6.836358   -4.786764    0.020138
     15          1           0        3.783415    2.188419    0.020257
     16          1           0        6.293569    2.338747    0.021076
     17          1           0        7.675959    0.265037    0.021179
     18          1           0        4.198073   -4.621030    0.019121
     19          1           0        7.832587   -2.269679    0.020909
 ---------------------------------------------------------------------
                    Distance matrix (angstroms):
                    1          2          3          4          5
     1  N    0.000000
     2  C    1.200756   0.000000
     3  C    2.669871   1.473154   0.000000
     4  C    3.531250   2.485837   1.402204   0.000000
     5  C    4.907883   3.793381   2.443767   1.427058   0.000000
     6  C    5.485034   4.290329   2.817186   2.442004   1.388831
     7  C    4.989913   3.812114   2.468792   2.857571   2.467899
     8  C    3.624833   2.499733   1.454453   2.511765   2.898760
     9  C    3.601264   2.797668   2.498757   3.815442   4.371740
    10  C    5.015560   4.211960   3.705594   4.871889   5.092191
    11  C    6.086873   5.115597   4.230125   5.096615   4.902818
    12  C    6.090259   4.972673   3.772682   4.286637   3.781187
    13  N    8.599060   7.712594   6.896616   7.725825   7.362081
    14  C    7.464290   6.543075   5.697359   6.534593   6.224239
    15  H    3.473620   2.708041   2.175332   1.097687   2.193260
    16  H    5.704103   4.669275   3.433916   2.185666   1.097968
    17  H    6.584573   5.390174   3.917031   3.440010   2.158734
    18  H    5.553297   4.927800   4.654181   5.895200   6.187442
    19  H    7.102953   5.955261   4.662618   4.941048   4.148038
                    6          7          8          9         10
     6  C    0.000000
     7  C    1.442235   0.000000
     8  C    2.516416   1.461367   0.000000
     9  C    3.920346   2.635080   1.477888   0.000000
    10  C    4.271802   2.831325   2.360154   1.424041   0.000000
    11  C    3.775365   2.435310   2.777114   2.567511   1.448408
    12  C    2.513479   1.429175   2.473647   3.024543   2.484576
    13  N    6.083936   4.941092   5.442723   4.998367   3.600180
    14  C    4.988234   3.777943   4.243987   3.876579   2.526360
    15  H    3.433112   3.955252   3.502080   4.673999   5.842621
    16  H    2.162786   3.464964   3.996681   5.468836   6.169037
    17  H    1.099845   2.195230   3.505001   4.820422   4.931015
    18  H    5.371957   3.930114   3.397734   2.189422   1.104421
    19  H    2.765268   2.197821   3.479776   4.121197   3.486200
                   11         12         13         14         15
    11  C    0.000000
    12  C    1.406328   0.000000
    13  N    2.667205   3.583379   0.000000
    14  C    1.467298   2.475078   1.200474   0.000000
    15  H    6.166655   5.384323   8.808604   7.614042   0.000000
    16  H    5.887793   4.673496   8.246662   7.146155   2.514651
    17  H    4.139473   2.744458   6.098841   5.121096   4.341808
    18  H    2.147320   3.430519   3.452332   2.643485   6.822062
    19  H    2.186582   1.096765   3.581700   2.707063   6.022493
                   16         17         18         19
    16  H    0.000000
    17  H    2.492243   0.000000
    18  H    7.268397   5.997445   0.000000
    19  H    4.858618   2.539551   4.328804   0.000000
 Stoichiometry    C12H5N2(1-)
 Framework group  C1[X(C12H5N2)]
 Deg. of freedom    51
 Full point group                 C1      NOp   1
 Largest Abelian subgroup         C1      NOp   1
 Largest concise Abelian subgroup C1      NOp   1
                         Standard orientation:                         
 ---------------------------------------------------------------------
 Center     Atomic      Atomic             Coordinates (Angstroms)
 Number     Number       Type             X           Y           Z
 ---------------------------------------------------------------------
      1          7           0        3.421667   -2.461322   -0.000040
      2          6           0        2.718779   -1.487790   -0.000022
      3          6           0        1.993420   -0.205590   -0.000013
      4          6           0        2.712761    0.998040   -0.000013
      5          6           0        2.006614    2.238141    0.000010
      6          6           0        0.617861    2.252941    0.000020
      7          6           0       -0.144645    1.028757    0.000008
      8          6           0        0.540071   -0.262272    0.000010
      9          6           0       -0.076414   -1.605439    0.000047
     10          6           0       -1.493095   -1.460839    0.000070
     11          6           0       -2.236687   -0.217876    0.000009
     12          6           0       -1.573807    1.022426   -0.000014
     13          7           0       -4.902488   -0.304407   -0.000049
     14          6           0       -3.703846   -0.238107   -0.000028
     15          1           0        3.810421    0.990476   -0.000026
     16          1           0        2.572270    3.179186    0.000022
     17          1           0        0.080249    3.212437    0.000042
     18          1           0       -2.130752   -2.362581    0.000131
     19          1           0       -2.132502    1.966223   -0.000051
 ---------------------------------------------------------------------
 Rotational constants (GHZ):      1.4014071      0.4620748      0.3474973

 **********************************************************************

            Population analysis using the SCF density.

 **********************************************************************

 Orbital symmetries:
       Occupied  (A) (A) (A) (A) (A) (A) (A) (A) (A) (A) (A) (A)
                 (A) (A) (A) (A) (A) (A) (A) (A) (A) (A) (A) (A)
                 (A) (A) (A) (A) (A) (A) (A) (A) (A) (A) (A) (A)
                 (A) (A) (A) (A) (A) (A) (A) (A) (A) (A)
       Virtual   (A) (A) (A) (A) (A) (A) (A) (A) (A) (A) (A) (A)
                 (A) (A) (A) (A) (A) (A) (A) (A) (A) (A) (A) (A)
                 (A) (A) (A) (A) (A)
 The electronic state is 1-A.
 Alpha  occ. eigenvalues --  -13.96917 -13.96780  -9.89285  -9.87698  -9.87607
 Alpha  occ. eigenvalues --   -9.87528  -9.87518  -9.87435  -9.87253  -9.86194
 Alpha  occ. eigenvalues --   -9.84470  -9.83485  -9.79690  -9.66929  -0.70788
 Alpha  occ. eigenvalues --   -0.70328  -0.66764  -0.61916  -0.57791  -0.54698
 Alpha  occ. eigenvalues --   -0.50272  -0.45184  -0.41594  -0.40574  -0.33061
 Alpha  occ. eigenvalues --   -0.32782  -0.30651  -0.27748  -0.25014  -0.23317
 Alpha  occ. eigenvalues --   -0.20530  -0.19616  -0.19030  -0.17129  -0.16767
 Alpha  occ. eigenvalues --   -0.14046  -0.13816  -0.13221  -0.11938  -0.11346
 Alpha  occ. eigenvalues --   -0.10100  -0.09595  -0.05972  -0.02802   0.02011
 Alpha  occ. eigenvalues --    0.11142
 Alpha virt. eigenvalues --    0.17197   0.21521   0.24584   0.27657   0.28408
 Alpha virt. eigenvalues --    0.32116   0.32854   0.38176   0.44634   0.45260
 Alpha virt. eigenvalues --    0.46285   0.49523   0.53708   0.56423   0.57175
 Alpha virt. eigenvalues --    0.58403   0.60526   0.62681   0.67967   0.68914
 Alpha virt. eigenvalues --    0.71407   0.76741   0.77714   0.81860   0.84803
 Alpha virt. eigenvalues --    0.92014   0.93133   1.07701   1.08298
          Condensed to atoms (all electrons):
               1          2          3          4          5          6
     1  N    6.594274   0.659455  -0.010144  -0.000254  -0.000001   0.000000
     2  C    0.659455   4.922320   0.406670  -0.030310   0.000902   0.000012
     3  C   -0.010144   0.406670   4.789397   0.508009  -0.028766  -0.010199
     4  C   -0.000254  -0.030310   0.508009   4.841365   0.476978  -0.029460
     5  C   -0.000001   0.000902  -0.028766   0.476978   4.825898   0.525264
     6  C    0.000000   0.000012  -0.010199  -0.029460   0.525264   4.835868
     7  C   -0.000002   0.000958  -0.033481  -0.008263  -0.027893   0.462920
     8  C    0.000089  -0.030398   0.450746  -0.025417  -0.008003  -0.022969
     9  C   -0.000809   0.005207  -0.037504   0.000749   0.000019   0.000569
    10  C    0.000002  -0.000017   0.001469  -0.000016   0.000001   0.000047
    11  C    0.000000   0.000002   0.000017   0.000001  -0.000008   0.000794
    12  C    0.000000  -0.000005   0.000896   0.000032   0.000766  -0.029330
    13  N    0.000000   0.000000   0.000000   0.000000   0.000000   0.000000
    14  C    0.000000   0.000000   0.000000   0.000000   0.000000  -0.000005
    15  H    0.000074  -0.003388  -0.024793   0.386904  -0.024651   0.001326
    16  H    0.000000  -0.000017   0.001315  -0.025437   0.387303  -0.025698
    17  H    0.000000   0.000001   0.000017   0.001440  -0.026610   0.384085
    18  H    0.000000  -0.000004  -0.000015   0.000000   0.000000   0.000001
    19  H    0.000000   0.000000  -0.000019   0.000000   0.000013  -0.003319
               7          8          9         10         11         12
     1  N   -0.000002   0.000089  -0.000809   0.000002   0.000000   0.000000
     2  C    0.000958  -0.030398   0.005207  -0.000017   0.000002  -0.000005
     3  C   -0.033481   0.450746  -0.037504   0.001469   0.000017   0.000896
     4  C   -0.008263  -0.025417   0.000749  -0.000016   0.000001   0.000032
     5  C   -0.027893  -0.008003   0.000019   0.000001  -0.000008   0.000766
     6  C    0.462920  -0.022969   0.000569   0.000047   0.000794  -0.029330
     7  C    4.818548   0.440734  -0.016892  -0.011631  -0.028867   0.477639
     8  C    0.440734   4.902935   0.394501  -0.029768  -0.013681  -0.030813
     9  C   -0.016892   0.394501   5.463572   0.454772  -0.017849  -0.005926
    10  C   -0.011631  -0.029768   0.454772   4.946196   0.445808  -0.030104
    11  C   -0.028867  -0.013681  -0.017849   0.445808   4.806129   0.504331
    12  C    0.477639  -0.030813  -0.005926  -0.030104   0.504331   4.867942
    13  N   -0.000001   0.000000  -0.000001  -0.000142  -0.010770  -0.000040
    14  C    0.000948   0.000046   0.000654  -0.025388   0.409571  -0.031476
    15  H    0.000016   0.001168  -0.000018   0.000000   0.000000   0.000001
    16  H    0.001355   0.000021   0.000000   0.000000   0.000000  -0.000017
    17  H   -0.024596   0.001120  -0.000013  -0.000002   0.000013  -0.003327
    18  H    0.000010   0.002276  -0.031442   0.381662  -0.035425   0.001280
    19  H   -0.024623   0.001167  -0.000002   0.001125  -0.024666   0.386785
              13         14         15         16         17         18
     1  N    0.000000   0.000000   0.000074   0.000000   0.000000   0.000000
     2  C    0.000000   0.000000  -0.003388  -0.000017   0.000001  -0.000004
     3  C    0.000000   0.000000  -0.024793   0.001315   0.000017  -0.000015
     4  C    0.000000   0.000000   0.386904  -0.025437   0.001440   0.000000
     5  C    0.000000   0.000000  -0.024651   0.387303  -0.026610   0.000000
     6  C    0.000000  -0.000005   0.001326  -0.025698   0.384085   0.000001
     7  C   -0.000001   0.000948   0.000016   0.001355  -0.024596   0.000010
     8  C    0.000000   0.000046   0.001168   0.000021   0.001120   0.002276
     9  C   -0.000001   0.000654  -0.000018   0.000000  -0.000013  -0.031442
    10  C   -0.000142  -0.025388   0.000000   0.000000  -0.000002   0.381662
    11  C   -0.010770   0.409571   0.000000   0.000000   0.000013  -0.035425
    12  C   -0.000040  -0.031476   0.000001  -0.000017  -0.003327   0.001280
    13  N    6.608537   0.658294   0.000000   0.000000   0.000000   0.000101
    14  C    0.658294   4.954978   0.000000   0.000000  -0.000001  -0.003721
    15  H    0.000000   0.000000   0.607097  -0.003320  -0.000034   0.000000
    16  H    0.000000   0.000000  -0.003320   0.616177  -0.003804   0.000000
    17  H    0.000000  -0.000001  -0.000034  -0.003804   0.617257   0.000000
    18  H    0.000101  -0.003721   0.000000   0.000000   0.000000   0.659124
    19  H    0.000071  -0.003716   0.000000  -0.000001   0.000992  -0.000039
              19
     1  N    0.000000
     2  C    0.000000
     3  C   -0.000019
     4  C    0.000000
     5  C    0.000013
     6  C   -0.003319
     7  C   -0.024623
     8  C    0.001167
     9  C   -0.000002
    10  C    0.001125
    11  C   -0.024666
    12  C    0.386785
    13  N    0.000071
    14  C   -0.003716
    15  H    0.000000
    16  H   -0.000001
    17  H    0.000992
    18  H   -0.000039
    19  H    0.618009
 Mulliken charges:
               1
     1  N   -0.242683
     2  C    0.068613
     3  C   -0.013612
     4  C   -0.096321
     5  C   -0.101212
     6  C   -0.089906
     7  C   -0.026879
     8  C   -0.033753
     9  C   -0.209589
    10  C   -0.134012
    11  C   -0.035399
    12  C   -0.108634
    13  N   -0.256048
    14  C    0.039816
    15  H    0.059619
    16  H    0.052123
    17  H    0.053464
    18  H    0.026191
    19  H    0.048223
 Sum of Mulliken charges =  -1.00000
 Mulliken charges with hydrogens summed into heavy atoms:
               1
     1  N   -0.242683
     2  C    0.068613
     3  C   -0.013612
     4  C   -0.036702
     5  C   -0.049089
     6  C   -0.036442
     7  C   -0.026879
     8  C   -0.033753
     9  C   -0.209589
    10  C   -0.107821
    11  C   -0.035399
    12  C   -0.060411
    13  N   -0.256048
    14  C    0.039816
 Electronic spatial extent (au):  <R**2>=           2917.9742
 Charge=             -1.0000 electrons
 Dipole moment (field-independent basis, Debye):
    X=              2.1576    Y=              6.1654    Z=              0.0000  Tot=              6.5321
 Quadrupole moment (field-independent basis, Debye-Ang):
   XX=           -121.3772   YY=            -90.5180   ZZ=            -74.1702
   XY=              8.6029   XZ=             -0.0001   YZ=              0.0001
 Traceless Quadrupole moment (field-independent basis, Debye-Ang):
   XX=            -26.0221   YY=              4.8371   ZZ=             21.1849
   XY=              8.6029   XZ=             -0.0001   YZ=              0.0001
 Octapole moment (field-independent basis, Debye-Ang**2):
  XXX=            130.8662  YYY=             43.9632  ZZZ=             -0.0003  XYY=            -38.0381
  XXY=             53.6545  XXZ=              0.0025  XZZ=             -1.4282  YZZ=             -3.3963
  YYZ=              0.0001  XYZ=             -0.0003
 Hexadecapole moment (field-independent basis, Debye-Ang**3):
 XXXX=          -3800.2846 YYYY=          -1074.0388 ZZZZ=            -58.3953 XXXY=             95.2881
 XXXZ=             -0.0082 YYYX=             87.8754 YYYZ=              0.0002 ZZZX=              0.0003
 ZZZY=              0.0004 XXYY=           -725.6174 XXZZ=           -453.6010 YYZZ=           -178.4428
 XXYZ=             -0.0028 YYXZ=              0.0017 ZZXY=             -7.8125
 N-N= 6.924708284538D+02 E-N=-2.707408379614D+03  KE= 5.547311011655D+02
 1\1\GINC-N049\FOpt\RB3LYP\STO-3G\C12H5N2(1-)\R2532\15-Jun-2021\0\\#N B
 3LYP/STO-3G OPT\\1Naph\\-1,1\N,1.0973033514,-0.0140426699,0.0190075155
 \C,2.2965159379,-0.0749003638,0.0193820085\C,3.7670361188,0.0131482716
 ,0.019881175\C,4.3863722661,1.2711622849,0.0202959668\C,5.8111126241,1
 .3524561034,0.0207645499\C,6.5783601861,0.1947929614,0.0208214769\C,5.
 9652327011,-1.110625371,0.0204135228\C,4.5093917479,-1.2375881868,0.01
 99017964\C,3.7170242296,-2.4851082506,0.0193939681\C,4.6084044122,-3.5
 956644822,0.0194885162\C,6.0558996127,-3.5442467654,0.0200432849\C,6.7
 367052991,-2.3136931078,0.0204969088\N,7.4322001153,-5.8289300227,0.02
 01885507\C,6.8363581005,-4.7867640895,0.0201379316\H,3.7834154307,2.18
 84187012,0.0202568392\H,6.2935685995,2.338746928,0.0210764799\H,7.6759
 592082,0.2650372195,0.0211794754\H,4.1980733017,-4.6210300871,0.019121
 2751\H,7.8325867571,-2.2696790733,0.0209087582\\Version=ES64L-G09RevD.
 01\State=1-A\HF=-562.5135092\RMSD=5.155e-09\RMSF=1.945e-05\Dipole=1.57
 47107,2.0309479,0.0008557\Quadrupole=-9.0177518,-6.7327266,15.7504784,
 13.0843405,-0.0062475,0.0007592\PG=C01 [X(C12H5N2)]\\@



 WE LOSE BECAUSE WE WIN

 GAMBLERS,

 RECOLLECTING WHICH,

 TOSS THEIR DICE AGAIN....


                          EMILY DICKINSON  BOLTS OF MELODY NO. 533
 Job cpu time:       0 days  0 hours  4 minutes  2.5 seconds.
 File lengths (MBytes):  RWF=      5 Int=      0 D2E=      0 Chk=      2 Scr=      1
 Normal termination of Gaussian 09 at Tue Jun 15 11:17:41 2021.
