 Entering Gaussian System, Link 0=/usr/local/apps//g09/g09
 Input=18.com
 Output=18.out
 Initial command:
 /usr/local/apps//g09/l1.exe "/tmp/bnp.472658.sequoia/Gau-26421.inp" -scrdir="/tmp/bnp.472658.sequoia/"
 Entering Link 1 = /usr/local/apps//g09/l1.exe PID=     26422.
  
 Copyright (c) 1988,1990,1992,1993,1995,1998,2003,2009,2013,
            Gaussian, Inc.  All Rights Reserved.
  
 This is part of the Gaussian(R) 09 program.  It is based on
 the Gaussian(R) 03 system (copyright 2003, Gaussian, Inc.),
 the Gaussian(R) 98 system (copyright 1998, Gaussian, Inc.),
 the Gaussian(R) 94 system (copyright 1995, Gaussian, Inc.),
 the Gaussian 92(TM) system (copyright 1992, Gaussian, Inc.),
 the Gaussian 90(TM) system (copyright 1990, Gaussian, Inc.),
 the Gaussian 88(TM) system (copyright 1988, Gaussian, Inc.),
 the Gaussian 86(TM) system (copyright 1986, Carnegie Mellon
 University), and the Gaussian 82(TM) system (copyright 1983,
 Carnegie Mellon University). Gaussian is a federally registered
 trademark of Gaussian, Inc.
  
 This software contains proprietary and confidential information,
 including trade secrets, belonging to Gaussian, Inc.
  
 This software is provided under written license and may be
 used, copied, transmitted, or stored only in accord with that
 written license.
  
 The following legend is applicable only to US Government
 contracts under FAR:
  
                    RESTRICTED RIGHTS LEGEND
  
 Use, reproduction and disclosure by the US Government is
 subject to restrictions as set forth in subparagraphs (a)
 and (c) of the Commercial Computer Software - Restricted
 Rights clause in FAR 52.227-19.
  
 Gaussian, Inc.
 340 Quinnipiac St., Bldg. 40, Wallingford CT 06492
  
  
 ---------------------------------------------------------------
 Warning -- This program may not be used in any manner that
 competes with the business of Gaussian, Inc. or will provide
 assistance to any competitor of Gaussian, Inc.  The licensee
 of this program is prohibited from giving any competitor of
 Gaussian, Inc. access to this program.  By using this program,
 the user acknowledges that Gaussian, Inc. is engaged in the
 business of creating and licensing software in the field of
 computational chemistry and represents and warrants to the
 licensee that it is not a competitor of Gaussian, Inc. and that
 it will not use this program in any manner prohibited above.
 ---------------------------------------------------------------
  

 Cite this work as:
 Gaussian 09, Revision D.01,
 M. J. Frisch, G. W. Trucks, H. B. Schlegel, G. E. Scuseria, 
 M. A. Robb, J. R. Cheeseman, G. Scalmani, V. Barone, B. Mennucci, 
 G. A. Petersson, H. Nakatsuji, M. Caricato, X. Li, H. P. Hratchian, 
 A. F. Izmaylov, J. Bloino, G. Zheng, J. L. Sonnenberg, M. Hada, 
 M. Ehara, K. Toyota, R. Fukuda, J. Hasegawa, M. Ishida, T. Nakajima, 
 Y. Honda, O. Kitao, H. Nakai, T. Vreven, J. A. Montgomery, Jr., 
 J. E. Peralta, F. Ogliaro, M. Bearpark, J. J. Heyd, E. Brothers, 
 K. N. Kudin, V. N. Staroverov, T. Keith, R. Kobayashi, J. Normand, 
 K. Raghavachari, A. Rendell, J. C. Burant, S. S. Iyengar, J. Tomasi, 
 M. Cossi, N. Rega, J. M. Millam, M. Klene, J. E. Knox, J. B. Cross, 
 V. Bakken, C. Adamo, J. Jaramillo, R. Gomperts, R. E. Stratmann, 
 O. Yazyev, A. J. Austin, R. Cammi, C. Pomelli, J. W. Ochterski, 
 R. L. Martin, K. Morokuma, V. G. Zakrzewski, G. A. Voth, 
 P. Salvador, J. J. Dannenberg, S. Dapprich, A. D. Daniels, 
 O. Farkas, J. B. Foresman, J. V. Ortiz, J. Cioslowski, 
 and D. J. Fox, Gaussian, Inc., Wallingford CT, 2013.
 
 ******************************************
 Gaussian 09:  ES64L-G09RevD.01 24-Apr-2013
                15-Jun-2021 
 ******************************************
 -------------------
 #N B3LYP/STO-3G OPT
 -------------------
 1/14=-1,18=20,19=15,26=3,38=1/1,3;
 2/9=110,12=2,17=6,18=5,40=1/2;
 3/6=3,11=2,16=1,25=1,30=1,71=1,74=-5/1,2,3;
 4//1;
 5/5=2,38=5/2;
 6/7=2,8=2,9=2,10=2,28=1/1;
 7//1,2,3,16;
 1/14=-1,18=20,19=15,26=3/3(2);
 2/9=110/2;
 99//99;
 2/9=110/2;
 3/6=3,11=2,16=1,25=1,30=1,71=1,74=-5/1,2,3;
 4/5=5,16=3,69=1/1;
 5/5=2,38=5/2;
 7//1,2,3,16;
 1/14=-1,18=20,19=15,26=3/3(-5);
 2/9=110/2;
 6/7=2,8=2,9=2,10=2,19=2,28=1/1;
 99/9=1/99;
 -----
 2Naph
 -----
 Symbolic Z-matrix:
 Charge = -1 Multiplicity = 1
 N                     4.20163   0.06329   2.16056 
 C                     4.77698  -0.19658   1.18639 
 C                     5.30084  -1.44752  -0.89714 
 C                     5.58159  -0.42722   0.02822 
 C                     6.65572   0.42399  -0.19427 
 C                     7.43006   0.21411  -1.31735 
 C                     7.41855  -1.02124  -1.95356 
 C                     6.25308  -1.80148  -1.89118 
 C                     6.16212  -2.88788  -2.79676 
 C                     7.32652  -3.34318  -3.46058 
 C                     8.54243  -2.69252  -3.29333 
 C                     8.56658  -1.48241  -2.6098 
 N                     3.90306  -3.94575  -3.55596 
 C                     4.91988  -3.47478  -3.16685 
 H                     6.87653   1.26075   0.46452 
 H                     7.92014   1.06388  -1.79421 
 H                     7.28688  -4.23106  -4.09371 
 H                     9.46307  -3.1034   -3.71118 
 H                     9.51127  -0.95745  -2.49018 
 

 GradGradGradGradGradGradGradGradGradGradGradGradGradGradGradGradGradGrad
 Berny optimization.
 Initialization pass.
                           ----------------------------
                           !    Initial Parameters    !
                           ! (Angstroms and Degrees)  !
 --------------------------                            --------------------------
 ! Name  Definition              Value          Derivative Info.                !
 --------------------------------------------------------------------------------
 ! R1    R(1,2)                  1.1608         estimate D2E/DX2                !
 ! R2    R(2,4)                  1.429          estimate D2E/DX2                !
 ! R3    R(3,4)                  1.4057         estimate D2E/DX2                !
 ! R4    R(3,8)                  1.4213         estimate D2E/DX2                !
 ! R5    R(4,5)                  1.3885         estimate D2E/DX2                !
 ! R6    R(5,6)                  1.3802         estimate D2E/DX2                !
 ! R7    R(5,15)                 1.0876         estimate D2E/DX2                !
 ! R8    R(6,7)                  1.3896         estimate D2E/DX2                !
 ! R9    R(6,16)                 1.0907         estimate D2E/DX2                !
 ! R10   R(7,8)                  1.4039         estimate D2E/DX2                !
 ! R11   R(7,12)                 1.4005         estimate D2E/DX2                !
 ! R12   R(8,9)                  1.4173         estimate D2E/DX2                !
 ! R13   R(9,10)                 1.4156         estimate D2E/DX2                !
 ! R14   R(9,14)                 1.4229         estimate D2E/DX2                !
 ! R15   R(10,11)                1.3892         estimate D2E/DX2                !
 ! R16   R(10,17)                1.0912         estimate D2E/DX2                !
 ! R17   R(11,12)                1.39           estimate D2E/DX2                !
 ! R18   R(11,18)                1.0913         estimate D2E/DX2                !
 ! R19   R(12,19)                1.0874         estimate D2E/DX2                !
 ! R20   R(13,14)                1.1862         estimate D2E/DX2                !
 ! A1    A(4,3,8)              120.4859         estimate D2E/DX2                !
 ! A2    A(2,4,3)              122.5623         estimate D2E/DX2                !
 ! A3    A(2,4,5)              117.8089         estimate D2E/DX2                !
 ! A4    A(3,4,5)              119.6028         estimate D2E/DX2                !
 ! A5    A(4,5,6)              118.1115         estimate D2E/DX2                !
 ! A6    A(4,5,15)             122.1173         estimate D2E/DX2                !
 ! A7    A(6,5,15)             119.7332         estimate D2E/DX2                !
 ! A8    A(5,6,7)              120.2042         estimate D2E/DX2                !
 ! A9    A(5,6,16)             119.2984         estimate D2E/DX2                !
 ! A10   A(7,6,16)             119.7465         estimate D2E/DX2                !
 ! A11   A(6,7,8)              118.7247         estimate D2E/DX2                !
 ! A12   A(6,7,12)             120.0325         estimate D2E/DX2                !
 ! A13   A(8,7,12)             121.2203         estimate D2E/DX2                !
 ! A14   A(3,8,7)              116.6698         estimate D2E/DX2                !
 ! A15   A(3,8,9)              126.4968         estimate D2E/DX2                !
 ! A16   A(7,8,9)              116.8019         estimate D2E/DX2                !
 ! A17   A(8,9,10)             119.5646         estimate D2E/DX2                !
 ! A18   A(8,9,14)             122.5755         estimate D2E/DX2                !
 ! A19   A(10,9,14)            117.6137         estimate D2E/DX2                !
 ! A20   A(9,10,11)            120.8557         estimate D2E/DX2                !
 ! A21   A(9,10,17)            120.2592         estimate D2E/DX2                !
 ! A22   A(11,10,17)           118.8655         estimate D2E/DX2                !
 ! A23   A(10,11,12)           118.8273         estimate D2E/DX2                !
 ! A24   A(10,11,18)           121.0605         estimate D2E/DX2                !
 ! A25   A(12,11,18)           120.0918         estimate D2E/DX2                !
 ! A26   A(7,12,11)            120.1892         estimate D2E/DX2                !
 ! A27   A(7,12,19)            120.1104         estimate D2E/DX2                !
 ! A28   A(11,12,19)           119.3071         estimate D2E/DX2                !
 ! A29   L(1,2,4,15,-1)        174.5762         estimate D2E/DX2                !
 ! A30   L(9,14,13,1,-1)       183.053          estimate D2E/DX2                !
 ! A31   L(1,2,4,15,-2)        178.7857         estimate D2E/DX2                !
 ! A32   L(9,14,13,1,-2)       177.064          estimate D2E/DX2                !
 ! D1    D(8,3,4,2)           -168.3079         estimate D2E/DX2                !
 ! D2    D(8,3,4,5)             13.5868         estimate D2E/DX2                !
 ! D3    D(4,3,8,7)             -4.5609         estimate D2E/DX2                !
 ! D4    D(4,3,8,9)            173.3197         estimate D2E/DX2                !
 ! D5    D(2,4,5,6)           -179.4427         estimate D2E/DX2                !
 ! D6    D(2,4,5,15)            -1.692          estimate D2E/DX2                !
 ! D7    D(3,4,5,6)             -1.2481         estimate D2E/DX2                !
 ! D8    D(3,4,5,15)           176.5027         estimate D2E/DX2                !
 ! D9    D(4,5,6,7)            -20.2653         estimate D2E/DX2                !
 ! D10   D(4,5,6,16)           149.7847         estimate D2E/DX2                !
 ! D11   D(15,5,6,7)           161.9286         estimate D2E/DX2                !
 ! D12   D(15,5,6,16)          -28.0214         estimate D2E/DX2                !
 ! D13   D(5,6,7,8)             29.5702         estimate D2E/DX2                !
 ! D14   D(5,6,7,12)          -148.7255         estimate D2E/DX2                !
 ! D15   D(16,6,7,8)          -140.4352         estimate D2E/DX2                !
 ! D16   D(16,6,7,12)           41.2691         estimate D2E/DX2                !
 ! D17   D(6,7,8,3)            -16.3993         estimate D2E/DX2                !
 ! D18   D(6,7,8,9)            165.5094         estimate D2E/DX2                !
 ! D19   D(12,7,8,3)           161.8753         estimate D2E/DX2                !
 ! D20   D(12,7,8,9)           -16.216          estimate D2E/DX2                !
 ! D21   D(6,7,12,11)         -177.3802         estimate D2E/DX2                !
 ! D22   D(6,7,12,19)            9.8669         estimate D2E/DX2                !
 ! D23   D(8,7,12,11)            4.3674         estimate D2E/DX2                !
 ! D24   D(8,7,12,19)         -168.3854         estimate D2E/DX2                !
 ! D25   D(3,8,9,10)          -162.1875         estimate D2E/DX2                !
 ! D26   D(3,8,9,14)            23.652          estimate D2E/DX2                !
 ! D27   D(7,8,9,10)            15.6907         estimate D2E/DX2                !
 ! D28   D(7,8,9,14)          -158.4698         estimate D2E/DX2                !
 ! D29   D(8,9,10,11)           -3.6184         estimate D2E/DX2                !
 ! D30   D(8,9,10,17)          174.751          estimate D2E/DX2                !
 ! D31   D(14,9,10,11)         170.8291         estimate D2E/DX2                !
 ! D32   D(14,9,10,17)         -10.8015         estimate D2E/DX2                !
 ! D33   D(9,10,11,12)          -8.6039         estimate D2E/DX2                !
 ! D34   D(9,10,11,18)         173.0377         estimate D2E/DX2                !
 ! D35   D(17,10,11,12)        173.0044         estimate D2E/DX2                !
 ! D36   D(17,10,11,18)         -5.3541         estimate D2E/DX2                !
 ! D37   D(10,11,12,7)           8.3002         estimate D2E/DX2                !
 ! D38   D(10,11,12,19)       -178.889          estimate D2E/DX2                !
 ! D39   D(18,11,12,7)        -173.3251         estimate D2E/DX2                !
 ! D40   D(18,11,12,19)         -0.5142         estimate D2E/DX2                !
 --------------------------------------------------------------------------------
 Trust Radius=3.00D-01 FncErr=1.00D-07 GrdErr=1.00D-06
 Number of steps in this run=    102 maximum allowed number of steps=    114.
 GradGradGradGradGradGradGradGradGradGradGradGradGradGradGradGradGradGrad

                          Input orientation:                          
 ---------------------------------------------------------------------
 Center     Atomic      Atomic             Coordinates (Angstroms)
 Number     Number       Type             X           Y           Z
 ---------------------------------------------------------------------
      1          7           0        4.201630    0.063290    2.160560
      2          6           0        4.776980   -0.196580    1.186390
      3          6           0        5.300840   -1.447520   -0.897140
      4          6           0        5.581590   -0.427220    0.028220
      5          6           0        6.655720    0.423990   -0.194270
      6          6           0        7.430060    0.214110   -1.317350
      7          6           0        7.418550   -1.021240   -1.953560
      8          6           0        6.253080   -1.801480   -1.891180
      9          6           0        6.162120   -2.887880   -2.796760
     10          6           0        7.326520   -3.343180   -3.460580
     11          6           0        8.542430   -2.692520   -3.293330
     12          6           0        8.566580   -1.482410   -2.609800
     13          7           0        3.903060   -3.945750   -3.555960
     14          6           0        4.919880   -3.474780   -3.166850
     15          1           0        6.876530    1.260750    0.464520
     16          1           0        7.920140    1.063880   -1.794210
     17          1           0        7.286880   -4.231060   -4.093710
     18          1           0        9.463070   -3.103400   -3.711180
     19          1           0        9.511270   -0.957450   -2.490180
 ---------------------------------------------------------------------
                    Distance matrix (angstroms):
                    1          2          3          4          5
     1  N    0.000000
     2  C    1.160848   0.000000
     3  C    3.583342   2.486036   0.000000
     4  C    2.586844   1.428968   1.405747   0.000000
     5  C    3.420217   2.412673   2.415011   1.388458   0.000000
     6  C    4.747775   3.670996   2.733344   2.374596   1.380203
     7  C    5.333926   4.185360   2.404669   2.766719   2.401187
     8  C    4.909421   3.771739   1.421325   2.454299   2.827426
     9  C    6.093271   5.002719   2.534758   3.791091   4.240882
    10  C    7.277787   6.164055   3.777318   4.870249   5.030937
    11  C    7.495462   6.362093   4.218964   4.993080   4.782937
    12  C    6.648181   5.515930   3.687747   4.121012   3.622228
    13  N    6.988573   6.108183   3.906951   5.295646   6.162201
    14  C    6.435458   5.451396   3.067001   4.464746   5.200940
    15  H    3.386082   2.655752   3.416379   2.171744   1.087625
    16  H    5.519846   4.511340   3.737994   3.318651   2.137294
    17  H    8.190000   7.103245   4.680866   5.862382   6.105202
    18  H    8.496353   7.375312   5.290077   6.017553   5.717722
    19  H    7.131870   6.042317   4.528318   4.697432   3.915833
                    6          7          8          9         10
     6  C    0.000000
     7  C    1.389599   0.000000
     8  C    2.403574   1.403918   0.000000
     9  C    3.663150   2.402904   1.417256   0.000000
    10  C    4.154331   2.769654   2.447882   1.415550   0.000000
    11  C    3.686511   2.418939   2.828622   2.439390   1.389161
    12  C    2.416668   1.400465   2.443461   2.791367   2.392497
    13  N    5.895383   4.845525   3.590540   2.607456   3.477394
    14  C    4.830069   3.706114   2.490921   1.422877   2.428068
    15  H    2.139372   3.368735   3.913472   5.325172   6.066718
    16  H    1.090726   2.150514   3.316441   4.439836   4.748826
    17  H    5.242920   3.860120   3.438421   2.179747   1.091218
    18  H    4.568307   3.406564   3.912982   3.432038   2.164519
    19  H    2.660736   2.161367   3.418624   3.877803   3.377353
                   11         12         13         14         15
    11  C    0.000000
    12  C    1.390023   0.000000
    13  N    4.812828   5.358328   0.000000
    14  C    3.708207   4.192644   1.186230   0.000000
    15  H    5.703070   4.453385   7.218963   6.280173   0.000000
    16  H    4.092083   2.750757   6.658610   5.611162   2.495945
    17  H    2.141056   3.375603   3.438141   2.652116   7.148834
    18  H    1.091329   2.155073   5.625598   4.590729   6.570576
    19  H    2.143401   1.087351   6.443434   5.279744   4.537898
                   16         17         18         19
    16  H    0.000000
    17  H    5.807332   0.000000
    18  H    4.839590   2.480675   0.000000
    19  H    2.664928   4.270333   2.469467   0.000000
 Stoichiometry    C12H5N2(1-)
 Framework group  C1[X(C12H5N2)]
 Deg. of freedom    51
 Full point group                 C1      NOp   1
 Largest Abelian subgroup         C1      NOp   1
 Largest concise Abelian subgroup C1      NOp   1
                         Standard orientation:                         
 ---------------------------------------------------------------------
 Center     Atomic      Atomic             Coordinates (Angstroms)
 Number     Number       Type             X           Y           Z
 ---------------------------------------------------------------------
      1          7           0       -4.392262    1.168059   -0.520471
      2          6           0       -3.331445    0.759461   -0.285350
      3          6           0       -0.862236    0.830419   -0.005446
      4          6           0       -2.081431    0.130716    0.004639
      5          6           0       -2.096863   -1.215466    0.344304
      6          6           0       -0.894228   -1.826149    0.637042
      7          6           0        0.299458   -1.265002    0.199761
      8          6           0        0.372566    0.128226    0.043058
      9          6           0        1.667067    0.688978   -0.092735
     10          6           0        2.763809   -0.151842   -0.399264
     11          6           0        2.601435   -1.528143   -0.495168
     12          6           0        1.389144   -2.088466   -0.109744
     13          7           0        2.228795    3.171409    0.473681
     14          6           0        1.942326    2.057053    0.185081
     15          1           0       -3.022063   -1.782276    0.419544
     16          1           0       -0.874972   -2.654596    1.346258
     17          1           0        3.748818    0.276995   -0.590609
     18          1           0        3.415024   -2.168402   -0.840334
     19          1           0        1.259859   -3.166719   -0.164395
 ---------------------------------------------------------------------
 Rotational constants (GHZ):      1.1549885      0.5409471      0.3813212
 Standard basis: STO-3G (5D, 7F)
 There are    75 symmetry adapted cartesian basis functions of A   symmetry.
 There are    75 symmetry adapted basis functions of A   symmetry.
    75 basis functions,   225 primitive gaussians,    75 cartesian basis functions
    46 alpha electrons       46 beta electrons
       nuclear repulsion energy       707.1409054920 Hartrees.
 NAtoms=   19 NActive=   19 NUniq=   19 SFac= 1.00D+00 NAtFMM=   60 NAOKFM=F Big=F
 Integral buffers will be    131072 words long.
 Raffenetti 2 integral format.
 Two-electron integral symmetry is turned on.
 One-electron integrals computed using PRISM.
 NBasis=    75 RedAO= T EigKep=  1.55D-01  NBF=    75
 NBsUse=    75 1.00D-06 EigRej= -1.00D+00 NBFU=    75
 ExpMin= 1.69D-01 ExpMax= 9.91D+01 ExpMxC= 9.91D+01 IAcc=1 IRadAn=         1 AccDes= 0.00D+00
 Harris functional with IExCor=  402 and IRadAn=       1 diagonalized for initial guess.
 HarFok:  IExCor=  402 AccDes= 0.00D+00 IRadAn=         1 IDoV= 1 UseB2=F ITyADJ=14
 ICtDFT=  3500011 ScaDFX=  1.000000  1.000000  1.000000  1.000000
 FoFCou: FMM=F IPFlag=           0 FMFlag=      100000 FMFlg1=           0
         NFxFlg=           0 DoJE=T BraDBF=F KetDBF=T FulRan=T
         wScrn=  0.000000 ICntrl=     500 IOpCl=  0 I1Cent=   200000004 NGrid=           0
         NMat0=    1 NMatS0=      1 NMatT0=    0 NMatD0=    1 NMtDS0=    0 NMtDT0=    0
 Petite list used in FoFCou.
 Keep R1 ints in memory in canonical form, NReq=4993994.
 Requested convergence on RMS density matrix=1.00D-08 within 128 cycles.
 Requested convergence on MAX density matrix=1.00D-06.
 Requested convergence on             energy=1.00D-06.
 No special actions if energy rises.
 Integral accuracy reduced to 1.0D-05 until final iterations.
 EnCoef did     4 forward-backward iterations
 EnCoef did     6 forward-backward iterations
 EnCoef did     3 forward-backward iterations
 Initial convergence to 1.0D-05 achieved.  Increase integral accuracy.
 SCF Done:  E(RB3LYP) =  -562.452857820     A.U. after   24 cycles
            NFock= 24  Conv=0.31D-08     -V/T= 2.0127

 **********************************************************************

            Population analysis using the SCF density.

 **********************************************************************

 Orbital symmetries:
       Occupied  (A) (A) (A) (A) (A) (A) (A) (A) (A) (A) (A) (A)
                 (A) (A) (A) (A) (A) (A) (A) (A) (A) (A) (A) (A)
                 (A) (A) (A) (A) (A) (A) (A) (A) (A) (A) (A) (A)
                 (A) (A) (A) (A) (A) (A) (A) (A) (A) (A)
       Virtual   (A) (A) (A) (A) (A) (A) (A) (A) (A) (A) (A) (A)
                 (A) (A) (A) (A) (A) (A) (A) (A) (A) (A) (A) (A)
                 (A) (A) (A) (A) (A)
 The electronic state is 1-A.
 Alpha  occ. eigenvalues --  -13.97110 -13.94300  -9.89323  -9.88098  -9.87105
 Alpha  occ. eigenvalues --   -9.86899  -9.86075  -9.85815  -9.85512  -9.84652
 Alpha  occ. eigenvalues --   -9.83889  -9.83589  -9.82432  -9.68630  -0.71450
 Alpha  occ. eigenvalues --   -0.70364  -0.68183  -0.62872  -0.58451  -0.55866
 Alpha  occ. eigenvalues --   -0.51172  -0.46124  -0.42603  -0.40255  -0.34994
 Alpha  occ. eigenvalues --   -0.32849  -0.30920  -0.27892  -0.25892  -0.22633
 Alpha  occ. eigenvalues --   -0.22189  -0.21797  -0.20007  -0.17606  -0.16029
 Alpha  occ. eigenvalues --   -0.15113  -0.13921  -0.13393  -0.11958  -0.11429
 Alpha  occ. eigenvalues --   -0.10012  -0.09768  -0.05625  -0.03551   0.02675
 Alpha  occ. eigenvalues --    0.12424
 Alpha virt. eigenvalues --    0.16955   0.22080   0.26689   0.28382   0.30587
 Alpha virt. eigenvalues --    0.31582   0.33574   0.39832   0.45178   0.48305
 Alpha virt. eigenvalues --    0.51995   0.52510   0.55940   0.59669   0.60315
 Alpha virt. eigenvalues --    0.62255   0.64650   0.65541   0.71370   0.73077
 Alpha virt. eigenvalues --    0.74264   0.78925   0.82026   0.86043   0.88092
 Alpha virt. eigenvalues --    0.97494   0.98927   1.12610   1.18756
          Condensed to atoms (all electrons):
               1          2          3          4          5          6
     1  N    6.610247   0.686510   0.000091  -0.011877  -0.000292   0.000000
     2  C    0.686510   4.908464  -0.033062   0.423770  -0.041302   0.001120
     3  C    0.000091  -0.033062   5.373702   0.486216  -0.030341  -0.017139
     4  C   -0.011877   0.423770   0.486216   4.818576   0.465467  -0.037544
     5  C   -0.000292  -0.041302  -0.030341   0.465467   4.862686   0.524848
     6  C    0.000000   0.001120  -0.017139  -0.037544   0.524848   4.880265
     7  C    0.000000   0.000001  -0.031702  -0.013221  -0.030448   0.482420
     8  C   -0.000003   0.001167   0.450792  -0.026302  -0.010994  -0.037071
     9  C    0.000000  -0.000003  -0.027819   0.000984  -0.000013   0.001006
    10  C    0.000000   0.000000   0.000651  -0.000010   0.000000   0.000060
    11  C    0.000000   0.000000   0.000036   0.000002  -0.000012   0.001086
    12  C    0.000000   0.000000   0.001081   0.000051   0.000837  -0.035679
    13  N    0.000000   0.000000  -0.000063   0.000000   0.000000   0.000000
    14  C    0.000000   0.000000  -0.000923   0.000006   0.000000  -0.000007
    15  H    0.000052  -0.003277   0.001469  -0.024284   0.383742  -0.027352
    16  H    0.000000  -0.000029   0.000057   0.001668  -0.027836   0.388723
    17  H    0.000000   0.000000  -0.000018   0.000000   0.000000   0.000001
    18  H    0.000000   0.000000   0.000001   0.000000   0.000000  -0.000023
    19  H    0.000000   0.000000  -0.000037  -0.000004   0.000050  -0.004575
               7          8          9         10         11         12
     1  N    0.000000  -0.000003   0.000000   0.000000   0.000000   0.000000
     2  C    0.000001   0.001167  -0.000003   0.000000   0.000000   0.000000
     3  C   -0.031702   0.450792  -0.027819   0.000651   0.000036   0.001081
     4  C   -0.013221  -0.026302   0.000984  -0.000010   0.000002   0.000051
     5  C   -0.030448  -0.010994  -0.000013   0.000000  -0.000012   0.000837
     6  C    0.482420  -0.037071   0.001006   0.000060   0.001086  -0.035679
     7  C    4.812079   0.453670  -0.040310  -0.011382  -0.030586   0.476931
     8  C    0.453670   4.827435   0.464068  -0.029192  -0.010264  -0.026552
     9  C   -0.040310   0.464068   4.773917   0.494461  -0.028379  -0.011030
    10  C   -0.011382  -0.029192   0.494461   4.843815   0.499244  -0.033257
    11  C   -0.030586  -0.010264  -0.028379   0.499244   4.820971   0.514191
    12  C    0.476931  -0.026552  -0.011030  -0.033257   0.514191   4.849115
    13  N   -0.000002  -0.000066  -0.011174  -0.000328  -0.000001   0.000000
    14  C    0.001047  -0.027304   0.433788  -0.034145   0.001030   0.000025
    15  H    0.001586   0.000068   0.000001   0.000000   0.000000  -0.000024
    16  H   -0.026908   0.001413  -0.000034   0.000000   0.000024  -0.004162
    17  H    0.000030   0.001237  -0.024759   0.389213  -0.027337   0.001595
    18  H    0.001496   0.000025   0.001386  -0.025538   0.389696  -0.026025
    19  H   -0.025540   0.001359   0.000010   0.001609  -0.027878   0.388747
              13         14         15         16         17         18
     1  N    0.000000   0.000000   0.000052   0.000000   0.000000   0.000000
     2  C    0.000000   0.000000  -0.003277  -0.000029   0.000000   0.000000
     3  C   -0.000063  -0.000923   0.001469   0.000057  -0.000018   0.000001
     4  C    0.000000   0.000006  -0.024284   0.001668   0.000000   0.000000
     5  C    0.000000   0.000000   0.383742  -0.027836   0.000000   0.000000
     6  C    0.000000  -0.000007  -0.027352   0.388723   0.000001  -0.000023
     7  C   -0.000002   0.001047   0.001586  -0.026908   0.000030   0.001496
     8  C   -0.000066  -0.027304   0.000068   0.001413   0.001237   0.000025
     9  C   -0.011174   0.433788   0.000001  -0.000034  -0.024759   0.001386
    10  C   -0.000328  -0.034145   0.000000   0.000000   0.389213  -0.025538
    11  C   -0.000001   0.001030   0.000000   0.000024  -0.027337   0.389696
    12  C    0.000000   0.000025  -0.000024  -0.004162   0.001595  -0.026025
    13  N    6.589469   0.668269   0.000000   0.000000   0.000062   0.000000
    14  C    0.668269   4.895969   0.000000   0.000000  -0.003850  -0.000019
    15  H    0.000000   0.000000   0.624063  -0.003903   0.000000   0.000000
    16  H    0.000000   0.000000  -0.003903   0.627567   0.000000  -0.000001
    17  H    0.000062  -0.003850   0.000000   0.000000   0.610537  -0.003895
    18  H    0.000000  -0.000019   0.000000  -0.000001  -0.003895   0.614103
    19  H    0.000000   0.000001  -0.000006   0.000611  -0.000044  -0.003901
              19
     1  N    0.000000
     2  C    0.000000
     3  C   -0.000037
     4  C   -0.000004
     5  C    0.000050
     6  C   -0.004575
     7  C   -0.025540
     8  C    0.001359
     9  C    0.000010
    10  C    0.001609
    11  C   -0.027878
    12  C    0.388747
    13  N    0.000000
    14  C    0.000001
    15  H   -0.000006
    16  H    0.000611
    17  H   -0.000044
    18  H   -0.003901
    19  H    0.617420
 Mulliken charges:
               1
     1  N   -0.284728
     2  C    0.056642
     3  C   -0.172991
     4  C   -0.083501
     5  C   -0.096392
     6  C   -0.120138
     7  C   -0.019160
     8  C   -0.033487
     9  C   -0.026099
    10  C   -0.095202
    11  C   -0.101823
    12  C   -0.095844
    13  N   -0.246168
    14  C    0.066114
    15  H    0.047863
    16  H    0.042811
    17  H    0.057228
    18  H    0.052695
    19  H    0.052178
 Sum of Mulliken charges =  -1.00000
 Mulliken charges with hydrogens summed into heavy atoms:
               1
     1  N   -0.284728
     2  C    0.056642
     3  C   -0.172991
     4  C   -0.083501
     5  C   -0.048529
     6  C   -0.077326
     7  C   -0.019160
     8  C   -0.033487
     9  C   -0.026099
    10  C   -0.037974
    11  C   -0.049128
    12  C   -0.043666
    13  N   -0.246168
    14  C    0.066114
 Electronic spatial extent (au):  <R**2>=           2732.4317
 Charge=             -1.0000 electrons
 Dipole moment (field-independent basis, Debye):
    X=              4.3244    Y=             -5.9260    Z=             -0.0999  Tot=              7.3367
 Quadrupole moment (field-independent basis, Debye-Ang):
   XX=           -110.5894   YY=            -94.6169   ZZ=            -74.4525
   XY=              1.2950   XZ=             -5.4335   YZ=             -1.2964
 Traceless Quadrupole moment (field-independent basis, Debye-Ang):
   XX=            -17.3698   YY=             -1.3973   ZZ=             18.7671
   XY=              1.2950   XZ=             -5.4335   YZ=             -1.2964
 Octapole moment (field-independent basis, Debye-Ang**2):
  XXX=            125.7634  YYY=            -54.3212  ZZZ=              0.4687  XYY=            -21.6603
  XXY=            -58.3624  XXZ=             12.4235  XZZ=             -0.6977  YZZ=              1.4995
  YYZ=             -7.6113  XYZ=            -10.0669
 Hexadecapole moment (field-independent basis, Debye-Ang**3):
 XXXX=          -2950.0055 YYYY=          -1277.7733 ZZZZ=           -120.1982 XXXY=            156.5344
 XXXZ=           -102.5863 YYYX=           -111.9404 YYYZ=            -30.3877 ZZZX=              6.9404
 ZZZY=              0.0968 XXYY=           -690.3461 XXZZ=           -413.1495 YYZZ=           -204.6821
 XXYZ=             14.2513 YYXZ=            -29.9603 ZZXY=              1.8895
 N-N= 7.071409054920D+02 E-N=-2.736980762258D+03  KE= 5.553852539473D+02
 Calling FoFJK, ICntrl=      2127 FMM=F ISym2X=0 I1Cent= 0 IOpClX= 0 NMat=1 NMatS=1 NMatT=0.
 ***** Axes restored to original set *****
 -------------------------------------------------------------------
 Center     Atomic                   Forces (Hartrees/Bohr)
 Number     Number              X              Y              Z
 -------------------------------------------------------------------
      1        7          -0.053567247    0.020693106    0.085193516
      2        6           0.035190668   -0.015998224   -0.058162881
      3        6          -0.071519126   -0.030360692    0.008569046
      4        6           0.002077918   -0.046770958   -0.019802089
      5        6           0.028451797    0.031616287   -0.008078461
      6        6           0.010595581    0.048513348    0.022171223
      7        6           0.017343929    0.006654506   -0.028052330
      8        6          -0.010515695    0.019354416    0.032306613
      9        6           0.019332523   -0.013883109   -0.017149822
     10        6          -0.015757694   -0.015741203   -0.005549834
     11        6           0.015908530    0.012196007    0.001404859
     12        6           0.024490350   -0.013141096   -0.017681134
     13        7          -0.031181681   -0.014071657   -0.012693421
     14        6           0.004578281   -0.002484013    0.015350337
     15        1          -0.006919078    0.017056333   -0.001273350
     16        1           0.024881092   -0.002355705    0.009249621
     17        1          -0.003643121   -0.004432763   -0.002555358
     18        1           0.002901175   -0.002534887   -0.004105566
     19        1           0.007351799    0.005690303    0.000859029
 -------------------------------------------------------------------
 Cartesian Forces:  Max     0.085193516 RMS     0.025580665

 GradGradGradGradGradGradGradGradGradGradGradGradGradGradGradGradGradGrad
 Berny optimization.
 FormGI is forming the generalized inverse of G from B-inverse, IUseBI=4.
 Internal  Forces:  Max     0.102677048 RMS     0.020193207
 Search for a local minimum.
 Step number   1 out of a maximum of  102
 All quantities printed in internal units (Hartrees-Bohrs-Radians)
 Mixed Optimization -- RFO/linear search
 Second derivative matrix not updated -- first step.
 ITU=  0
     Eigenvalues ---    0.01706   0.01706   0.01884   0.01963   0.01998
     Eigenvalues ---    0.02018   0.02058   0.02146   0.02162   0.02175
     Eigenvalues ---    0.02211   0.02228   0.02247   0.02288   0.02317
     Eigenvalues ---    0.02671   0.04520   0.04520   0.15766   0.15876
     Eigenvalues ---    0.15989   0.15992   0.15996   0.21644   0.22054
     Eigenvalues ---    0.23283   0.24024   0.24623   0.24788   0.24890
     Eigenvalues ---    0.24991   0.34660   0.34672   0.34729   0.35089
     Eigenvalues ---    0.35121   0.38958   0.40088   0.40610   0.41138
     Eigenvalues ---    0.42030   0.42439   0.43779   0.44762   0.45874
     Eigenvalues ---    0.46360   0.46722   0.47032   0.48240   1.12058
     Eigenvalues ---    1.27241
 RFO step:  Lambda=-7.63832696D-02 EMin= 1.70556340D-02
 Linear search not attempted -- first point.
 Maximum step size (   0.300) exceeded in Quadratic search.
    -- Step size scaled by   0.818
 Iteration  1 RMS(Cart)=  0.08496852 RMS(Int)=  0.00227354
 Iteration  2 RMS(Cart)=  0.00348651 RMS(Int)=  0.00061842
 Iteration  3 RMS(Cart)=  0.00000685 RMS(Int)=  0.00061841
 Iteration  4 RMS(Cart)=  0.00000001 RMS(Int)=  0.00061841
 Variable       Old X    -DE/DX   Delta X   Delta X   Delta X     New X
                                 (Linear)    (Quad)   (Total)
    R1        2.19368   0.10268   0.00000   0.06228   0.06228   2.25596
    R2        2.70036   0.03302   0.00000   0.05538   0.05538   2.75574
    R3        2.65648   0.01283   0.00000   0.01620   0.01632   2.67279
    R4        2.68591   0.02632   0.00000   0.04154   0.04157   2.72748
    R5        2.62381   0.07148   0.00000   0.10399   0.10419   2.72800
    R6        2.60821   0.01454   0.00000   0.02276   0.02282   2.63102
    R7        2.05531   0.01094   0.00000   0.02095   0.02095   2.07627
    R8        2.62596   0.05112   0.00000   0.07899   0.07872   2.70468
    R9        2.06117   0.00530   0.00000   0.01023   0.01023   2.07141
   R10        2.65302   0.06151   0.00000   0.10138   0.10132   2.75434
   R11        2.64649   0.03874   0.00000   0.06176   0.06186   2.70836
   R12        2.67823   0.03478   0.00000   0.05744   0.05754   2.73576
   R13        2.67500   0.00575   0.00000   0.00698   0.00688   2.68188
   R14        2.68885   0.02936   0.00000   0.04836   0.04836   2.73721
   R15        2.62513   0.03149   0.00000   0.04360   0.04343   2.66857
   R16        2.06210   0.00522   0.00000   0.01010   0.01010   2.07220
   R17        2.62676   0.01284   0.00000   0.01800   0.01800   2.64477
   R18        2.06231   0.00497   0.00000   0.00962   0.00962   2.07193
   R19        2.05479   0.00923   0.00000   0.01766   0.01766   2.07245
   R20        2.24165   0.03648   0.00000   0.02493   0.02493   2.26658
    A1        2.10288  -0.03769   0.00000  -0.09682  -0.09665   2.00622
    A2        2.13912  -0.01679   0.00000  -0.04117  -0.04118   2.09793
    A3        2.05615  -0.00792   0.00000  -0.01897  -0.01891   2.03724
    A4        2.08746   0.02461   0.00000   0.05943   0.05912   2.14658
    A5        2.06143   0.00823   0.00000   0.03051   0.03014   2.09157
    A6        2.13135  -0.00428   0.00000  -0.01553  -0.01539   2.11596
    A7        2.08974  -0.00391   0.00000  -0.01451  -0.01435   2.07539
    A8        2.09796  -0.01890   0.00000  -0.03720  -0.03872   2.05924
    A9        2.08215   0.01162   0.00000   0.02784   0.02879   2.11094
   A10        2.08997   0.00705   0.00000   0.00974   0.01047   2.10044
   A11        2.07214  -0.00465   0.00000  -0.00385  -0.00469   2.06745
   A12        2.09496   0.01335   0.00000   0.02066   0.02085   2.11581
   A13        2.11569  -0.00881   0.00000  -0.01762  -0.01740   2.09829
   A14        2.03627   0.03185   0.00000   0.08303   0.08262   2.11889
   A15        2.20779  -0.02691   0.00000  -0.07642  -0.07603   2.13175
   A16        2.03858  -0.00505   0.00000  -0.00723  -0.00734   2.03124
   A17        2.08680   0.00524   0.00000   0.01534   0.01521   2.10200
   A18        2.13935  -0.00762   0.00000  -0.01936  -0.01955   2.11980
   A19        2.05275   0.00278   0.00000   0.00692   0.00670   2.05945
   A20        2.10933   0.00182   0.00000  -0.00144  -0.00176   2.10757
   A21        2.09892  -0.00446   0.00000  -0.01152  -0.01136   2.08756
   A22        2.07459   0.00262   0.00000   0.01284   0.01299   2.08758
   A23        2.07393   0.00890   0.00000   0.01997   0.01971   2.09364
   A24        2.11291  -0.00643   0.00000  -0.01674  -0.01670   2.09621
   A25        2.09600  -0.00242   0.00000  -0.00273  -0.00269   2.09331
   A26        2.09770  -0.00086   0.00000   0.00238   0.00223   2.09993
   A27        2.09632  -0.00029   0.00000  -0.00345  -0.00339   2.09294
   A28        2.08230   0.00136   0.00000   0.00235   0.00230   2.08461
   A29        3.04693   0.00787   0.00000   0.06894   0.06894   3.11587
   A30        3.19488   0.00094   0.00000   0.00634   0.00634   3.20121
   A31        3.12040   0.00136   0.00000   0.01190   0.01190   3.13230
   A32        3.09035  -0.00150   0.00000  -0.01011  -0.01011   3.08024
    D1       -2.93753  -0.00353   0.00000  -0.02902  -0.03012  -2.96764
    D2        0.23713   0.00028   0.00000  -0.00286  -0.00385   0.23328
    D3       -0.07960   0.00138   0.00000   0.00784   0.00885  -0.07075
    D4        3.02500  -0.00226   0.00000  -0.01281  -0.01101   3.01399
    D5       -3.13187  -0.00263   0.00000  -0.02422  -0.02520   3.12612
    D6       -0.02953  -0.00175   0.00000  -0.01098  -0.01112  -0.04065
    D7       -0.02178  -0.00647   0.00000  -0.04967  -0.05111  -0.07289
    D8        3.08055  -0.00559   0.00000  -0.03642  -0.03702   3.04353
    D9       -0.35370   0.01066   0.00000   0.09500   0.09498  -0.25872
   D10        2.61424   0.00987   0.00000   0.09856   0.09949   2.71373
   D11        2.82619   0.00982   0.00000   0.08214   0.08128   2.90747
   D12       -0.48907   0.00903   0.00000   0.08570   0.08579  -0.40327
   D13        0.51610  -0.01573   0.00000  -0.10739  -0.10618   0.40991
   D14       -2.59575  -0.01145   0.00000  -0.07655  -0.07458  -2.67033
   D15       -2.45106  -0.01537   0.00000  -0.11274  -0.11253  -2.56359
   D16        0.72028  -0.01109   0.00000  -0.08189  -0.08093   0.63935
   D17       -0.28622   0.00384   0.00000   0.03936   0.03976  -0.24646
   D18        2.88868   0.00770   0.00000   0.05972   0.06018   2.94886
   D19        2.82526  -0.00010   0.00000   0.00881   0.00916   2.83442
   D20       -0.28302   0.00376   0.00000   0.02917   0.02958  -0.25344
   D21       -3.09587  -0.00248   0.00000  -0.02294  -0.02433  -3.12020
   D22        0.17221  -0.00452   0.00000  -0.03484  -0.03551   0.13670
   D23        0.07623   0.00183   0.00000   0.00842   0.00759   0.08382
   D24       -2.93888  -0.00021   0.00000  -0.00348  -0.00359  -2.94247
   D25       -2.83071  -0.00108   0.00000  -0.01601  -0.01812  -2.84883
   D26        0.41281  -0.00588   0.00000  -0.05073  -0.05186   0.36095
   D27        0.27385  -0.00404   0.00000  -0.03500  -0.03525   0.23860
   D28       -2.76582  -0.00884   0.00000  -0.06972  -0.06898  -2.83480
   D29       -0.06315   0.00047   0.00000   0.00896   0.00900  -0.05415
   D30        3.04998  -0.00033   0.00000   0.00388   0.00428   3.05426
   D31        2.98153   0.00442   0.00000   0.04041   0.04004   3.02157
   D32       -0.18852   0.00362   0.00000   0.03534   0.03532  -0.15321
   D33       -0.15017   0.00155   0.00000   0.02196   0.02258  -0.12759
   D34        3.02008  -0.00050   0.00000   0.00190   0.00221   3.02229
   D35        3.01950   0.00245   0.00000   0.02735   0.02769   3.04719
   D36       -0.09345   0.00040   0.00000   0.00729   0.00732  -0.08612
   D37        0.14486  -0.00448   0.00000  -0.03337  -0.03333   0.11153
   D38       -3.12220  -0.00258   0.00000  -0.02198  -0.02262   3.13837
   D39       -3.02509  -0.00252   0.00000  -0.01375  -0.01324  -3.03833
   D40       -0.00897  -0.00061   0.00000  -0.00236  -0.00252  -0.01149
         Item               Value     Threshold  Converged?
 Maximum Force            0.102677     0.000450     NO 
 RMS     Force            0.020193     0.000300     NO 
 Maximum Displacement     0.341729     0.001800     NO 
 RMS     Displacement     0.085109     0.001200     NO 
 Predicted change in Energy=-4.406459D-02
 GradGradGradGradGradGradGradGradGradGradGradGradGradGradGradGradGradGrad

                          Input orientation:                          
 ---------------------------------------------------------------------
 Center     Atomic      Atomic             Coordinates (Angstroms)
 Number     Number       Type             X           Y           Z
 ---------------------------------------------------------------------
      1          7           0        4.040405    0.006567    2.131667
      2          6           0        4.710127   -0.207545    1.166891
      3          6           0        5.236505   -1.478320   -0.909230
      4          6           0        5.556164   -0.446072    0.003324
      5          6           0        6.664602    0.458385   -0.189772
      6          6           0        7.524949    0.279125   -1.269635
      7          6           0        7.479074   -0.971275   -1.964533
      8          6           0        6.258654   -1.764376   -1.887270
      9          6           0        6.163528   -2.888572   -2.794453
     10          6           0        7.312169   -3.353126   -3.486493
     11          6           0        8.551990   -2.690098   -3.354616
     12          6           0        8.625550   -1.477386   -2.659878
     13          7           0        3.854621   -4.014476   -3.427363
     14          6           0        4.892127   -3.517294   -3.088233
     15          1           0        6.832941    1.306235    0.488447
     16          1           0        8.100975    1.118151   -1.676767
     17          1           0        7.243386   -4.255202   -4.106147
     18          1           0        9.455840   -3.119927   -3.802319
     19          1           0        9.593322   -0.971245   -2.559988
 ---------------------------------------------------------------------
                    Distance matrix (angstroms):
                    1          2          3          4          5
     1  N    0.000000
     2  C    1.193803   0.000000
     3  C    3.589234   2.490425   0.000000
     4  C    2.651839   1.458273   1.414381   0.000000
     5  C    3.532651   2.470621   2.511554   1.443594   0.000000
     6  C    4.877006   3.754561   2.907831   2.454068   1.392277
     7  C    5.436862   4.249254   2.529797   2.801050   2.420138
     8  C    4.920236   3.761589   1.443322   2.409515   2.826121
     9  C    6.095584   4.999252   2.530267   3.763277   4.270545
    10  C    7.318176   6.190257   3.803362   4.869634   5.080879
    11  C    7.597743   6.431718   4.294270   5.028557   4.846794
    12  C    6.795924   5.620249   3.814498   4.192540   3.700534
    13  N    6.863390   6.027585   3.831799   5.234345   6.195520
    14  C    6.355343   5.393852   3.004008   4.408069   5.229605
    15  H    3.491069   2.694096   3.500836   2.221730   1.098713
    16  H    5.676973   4.619709   3.941568   3.427180   2.170164
    17  H    8.205613   7.113779   4.686035   5.851833   6.155558
    18  H    8.620562   7.463029   5.372860   6.069587   5.800502
    19  H    7.335027   6.190190   4.686574   4.810927   4.029785
                    6          7          8          9         10
     6  C    0.000000
     7  C    1.431254   0.000000
     8  C    2.482110   1.457533   0.000000
     9  C    3.769992   2.468898   1.447704   0.000000
    10  C    4.260632   2.831508   2.488280   1.419191   0.000000
    11  C    3.770708   2.457200   2.875666   2.461285   1.412145
    12  C    2.495883   1.433200   2.506289   2.840970   2.434474
    13  N    6.046661   4.953545   3.635136   2.645616   3.520726
    14  C    4.965063   3.799633   2.526347   1.448468   2.458081
    15  H    2.150507   3.409054   3.924600   5.368608   6.143244
    16  H    1.096142   2.198925   3.427450   4.588763   4.887703
    17  H    5.355857   3.927626   3.478122   2.180439   1.096560
    18  H    4.657937   3.449894   3.965719   3.450889   2.179324
    19  H    2.739818   2.196500   3.493081   3.936318   3.425701
                   11         12         13         14         15
    11  C    0.000000
    12  C    1.399550   0.000000
    13  N    4.881039   5.457804   0.000000
    14  C    3.761623   4.275881   1.199424   0.000000
    15  H    5.804734   4.568802   7.246649   6.310771   0.000000
    16  H    4.185851   2.824624   6.887668   5.811737   2.516235
    17  H    2.174119   3.423205   3.464451   2.666285   7.225534
    18  H    1.096420   2.166216   5.684581   4.636302   6.699341
    19  H    2.161079   1.096694   6.553341   5.372396   4.701018
                   16         17         18         19
    16  H    0.000000
    17  H    5.959049   0.000000
    18  H    4.931017   2.505218   0.000000
    19  H    2.715281   4.324024   2.485784   0.000000
 Stoichiometry    C12H5N2(1-)
 Framework group  C1[X(C12H5N2)]
 Deg. of freedom    51
 Full point group                 C1      NOp   1
 Largest Abelian subgroup         C1      NOp   1
 Largest concise Abelian subgroup C1      NOp   1
                         Standard orientation:                         
 ---------------------------------------------------------------------
 Center     Atomic      Atomic             Coordinates (Angstroms)
 Number     Number       Type             X           Y           Z
 ---------------------------------------------------------------------
      1          7           0       -4.413989    1.198198   -0.497269
      2          6           0       -3.346835    0.713199   -0.271166
      3          6           0       -0.877378    0.862340    0.014768
      4          6           0       -2.059037    0.085198    0.000406
      5          6           0       -2.077323   -1.323371    0.315936
      6          6           0       -0.882620   -1.992356    0.568086
      7          6           0        0.339633   -1.348201    0.194391
      8          6           0        0.349411    0.103949    0.069612
      9          6           0        1.648133    0.729313   -0.064881
     10          6           0        2.795265   -0.052253   -0.360430
     11          6           0        2.704377   -1.457639   -0.464276
     12          6           0        1.512019   -2.107735   -0.126048
     13          7           0        2.053031    3.292541    0.450098
     14          6           0        1.834055    2.145169    0.177693
     15          1           0       -3.022357   -1.879513    0.385123
     16          1           0       -0.864640   -2.904240    1.176092
     17          1           0        3.756710    0.443295   -0.540708
     18          1           0        3.568973   -2.041169   -0.802067
     19          1           0        1.449829   -3.199224   -0.212781
 ---------------------------------------------------------------------
 Rotational constants (GHZ):      1.0884487      0.5426302      0.3727881
 Standard basis: STO-3G (5D, 7F)
 There are    75 symmetry adapted cartesian basis functions of A   symmetry.
 There are    75 symmetry adapted basis functions of A   symmetry.
    75 basis functions,   225 primitive gaussians,    75 cartesian basis functions
    46 alpha electrons       46 beta electrons
       nuclear repulsion energy       696.0750006193 Hartrees.
 NAtoms=   19 NActive=   19 NUniq=   19 SFac= 1.00D+00 NAtFMM=   60 NAOKFM=F Big=F
 Integral buffers will be    131072 words long.
 Raffenetti 2 integral format.
 Two-electron integral symmetry is turned on.
 One-electron integrals computed using PRISM.
 NBasis=    75 RedAO= T EigKep=  1.73D-01  NBF=    75
 NBsUse=    75 1.00D-06 EigRej= -1.00D+00 NBFU=    75
 Initial guess from the checkpoint file:  "/tmp/bnp.472658.sequoia/Gau-26422.chk"
 B after Tr=     0.000000    0.000000    0.000000
         Rot=    0.999882   -0.006028    0.002185   -0.013947 Ang=  -1.76 deg.
 ExpMin= 1.69D-01 ExpMax= 9.91D+01 ExpMxC= 9.91D+01 IAcc=1 IRadAn=         1 AccDes= 0.00D+00
 Harris functional with IExCor=  402 and IRadAn=       1 diagonalized for initial guess.
 HarFok:  IExCor=  402 AccDes= 0.00D+00 IRadAn=         1 IDoV= 1 UseB2=F ITyADJ=14
 ICtDFT=  3500011 ScaDFX=  1.000000  1.000000  1.000000  1.000000
 FoFCou: FMM=F IPFlag=           0 FMFlag=      100000 FMFlg1=           0
         NFxFlg=           0 DoJE=T BraDBF=F KetDBF=T FulRan=T
         wScrn=  0.000000 ICntrl=     500 IOpCl=  0 I1Cent=   200000004 NGrid=           0
         NMat0=    1 NMatS0=      1 NMatT0=    0 NMatD0=    1 NMtDS0=    0 NMtDT0=    0
 Petite list used in FoFCou.
 Keep R1 ints in memory in canonical form, NReq=4993994.
 Requested convergence on RMS density matrix=1.00D-08 within 128 cycles.
 Requested convergence on MAX density matrix=1.00D-06.
 Requested convergence on             energy=1.00D-06.
 No special actions if energy rises.
 Integral accuracy reduced to 1.0D-05 until final iterations.
 Initial convergence to 1.0D-05 achieved.  Increase integral accuracy.
 SCF Done:  E(RB3LYP) =  -562.494098090     A.U. after   20 cycles
            NFock= 20  Conv=0.57D-08     -V/T= 2.0139
 Calling FoFJK, ICntrl=      2127 FMM=F ISym2X=0 I1Cent= 0 IOpClX= 0 NMat=1 NMatS=1 NMatT=0.
 ***** Axes restored to original set *****
 -------------------------------------------------------------------
 Center     Atomic                   Forces (Hartrees/Bohr)
 Number     Number              X              Y              Z
 -------------------------------------------------------------------
      1        7          -0.008846456    0.002098930    0.011609144
      2        6           0.003469020   -0.000651490   -0.003596061
      3        6          -0.037938294   -0.015444347    0.004271864
      4        6           0.017933332   -0.008462115   -0.010034387
      5        6           0.006434058    0.006946510   -0.005439776
      6        6          -0.009403558    0.007798110    0.012616530
      7        6           0.005026188   -0.001854152   -0.016727499
      8        6           0.011916962    0.015691363    0.009853517
      9        6           0.018094558    0.000341356   -0.008253538
     10        6          -0.008357811   -0.003870144    0.000787303
     11        6           0.003562959    0.008609584    0.003327116
     12        6          -0.000982931   -0.008284311   -0.005955344
     13        7          -0.002309035   -0.001743670   -0.001121054
     14        6          -0.007651510   -0.005055517    0.006955321
     15        1          -0.007593314    0.007906565   -0.003922865
     16        1           0.016441167   -0.005635067    0.009921844
     17        1          -0.000906096   -0.000595130   -0.000945769
     18        1           0.000068867   -0.000530167   -0.002515938
     19        1           0.001041894    0.002733693   -0.000830408
 -------------------------------------------------------------------
 Cartesian Forces:  Max     0.037938294 RMS     0.009398092

 GradGradGradGradGradGradGradGradGradGradGradGradGradGradGradGradGradGrad
 Berny optimization.
 Using GEDIIS/GDIIS optimizer.
 FormGI is forming the generalized inverse of G from B-inverse, IUseBI=4.
 Internal  Forces:  Max     0.021948754 RMS     0.005912159
 Search for a local minimum.
 Step number   2 out of a maximum of  102
 All quantities printed in internal units (Hartrees-Bohrs-Radians)
 Mixed Optimization -- RFO/linear search
 Update second derivatives using D2CorX and points    1    2
 DE= -4.12D-02 DEPred=-4.41D-02 R= 9.36D-01
 TightC=F SS=  1.41D+00  RLast= 4.32D-01 DXNew= 5.0454D-01 1.2972D+00
 Trust test= 9.36D-01 RLast= 4.32D-01 DXMaxT set to 5.05D-01
 ITU=  1  0
 Use linear search instead of GDIIS.
     Eigenvalues ---    0.01706   0.01721   0.01884   0.01961   0.01999
     Eigenvalues ---    0.02013   0.02061   0.02129   0.02168   0.02170
     Eigenvalues ---    0.02204   0.02225   0.02235   0.02288   0.02359
     Eigenvalues ---    0.02616   0.04519   0.04524   0.15745   0.15893
     Eigenvalues ---    0.15972   0.15997   0.16014   0.21825   0.22051
     Eigenvalues ---    0.22238   0.23373   0.24387   0.24735   0.24952
     Eigenvalues ---    0.25012   0.34660   0.34676   0.34739   0.35098
     Eigenvalues ---    0.35134   0.38829   0.40196   0.40510   0.41349
     Eigenvalues ---    0.41904   0.42410   0.43862   0.45057   0.45930
     Eigenvalues ---    0.46276   0.46977   0.48207   0.54403   1.12655
     Eigenvalues ---    1.29534
 RFO step:  Lambda=-2.49065819D-02 EMin= 1.70556243D-02
 Quartic linear search produced a step of  0.60941.
 Iteration  1 RMS(Cart)=  0.15003345 RMS(Int)=  0.01524031
 Iteration  2 RMS(Cart)=  0.01769009 RMS(Int)=  0.00194605
 Iteration  3 RMS(Cart)=  0.00038823 RMS(Int)=  0.00191081
 Iteration  4 RMS(Cart)=  0.00000035 RMS(Int)=  0.00191081
 Variable       Old X    -DE/DX   Delta X   Delta X   Delta X     New X
                                 (Linear)    (Quad)   (Total)
    R1        2.25596   0.01472   0.03795  -0.02533   0.01262   2.26858
    R2        2.75574   0.00975   0.03375  -0.00497   0.02877   2.78451
    R3        2.67279   0.00584   0.00994   0.00380   0.01551   2.68830
    R4        2.72748   0.01442   0.02533   0.01968   0.04635   2.77383
    R5        2.72800   0.01086   0.06350  -0.04263   0.02157   2.74957
    R6        2.63102  -0.00328   0.01390  -0.02517  -0.01260   2.61843
    R7        2.07627   0.00252   0.01277  -0.00460   0.00817   2.08444
    R8        2.70468   0.01060   0.04797  -0.02001   0.02583   2.73050
    R9        2.07141   0.00064   0.00624  -0.00457   0.00167   2.07307
   R10        2.75434   0.00681   0.06174  -0.04246   0.01823   2.77257
   R11        2.70836   0.00442   0.03770  -0.02803   0.00927   2.71763
   R12        2.73576   0.00527   0.03506  -0.02090   0.01412   2.74989
   R13        2.68188  -0.00527   0.00419  -0.02326  -0.01863   2.66325
   R14        2.73721   0.01051   0.02947   0.00184   0.03131   2.76852
   R15        2.66857   0.00563   0.02647  -0.01571   0.01129   2.67986
   R16        2.07220   0.00108   0.00615  -0.00270   0.00346   2.07566
   R17        2.64477  -0.00251   0.01097  -0.02161  -0.01047   2.63429
   R18        2.07193   0.00129   0.00586  -0.00151   0.00435   2.07629
   R19        2.07245   0.00210   0.01076  -0.00395   0.00682   2.07927
   R20        2.26658   0.00304   0.01519  -0.01301   0.00219   2.26877
    A1        2.00622  -0.02195  -0.05890  -0.04270  -0.10193   1.90429
    A2        2.09793  -0.00714  -0.02510  -0.01098  -0.03556   2.06237
    A3        2.03724  -0.00536  -0.01152  -0.01727  -0.02826   2.00898
    A4        2.14658   0.01242   0.03603   0.02751   0.06209   2.20867
    A5        2.09157   0.00235   0.01837   0.00169   0.01481   2.10638
    A6        2.11596  -0.00298  -0.00938  -0.01493  -0.02169   2.09426
    A7        2.07539   0.00064  -0.00875   0.01321   0.00704   2.08243
    A8        2.05924  -0.00230  -0.02360   0.03530   0.00305   2.06228
    A9        2.11094   0.00280   0.01754  -0.00715   0.01452   2.12546
   A10        2.10044  -0.00025   0.00638  -0.02124  -0.01138   2.08906
   A11        2.06745  -0.00423  -0.00286  -0.00665  -0.01549   2.05196
   A12        2.11581   0.00537   0.01270  -0.00270   0.01424   2.13005
   A13        2.09829  -0.00127  -0.01060   0.00805  -0.00189   2.09640
   A14        2.11889   0.01610   0.05035   0.04021   0.08849   2.20737
   A15        2.13175  -0.01259  -0.04633  -0.03156  -0.07478   2.05697
   A16        2.03124  -0.00357  -0.00447  -0.00943  -0.01523   2.01601
   A17        2.10200   0.00531   0.00927   0.02752   0.03466   2.13667
   A18        2.11980  -0.00725  -0.01191  -0.02832  -0.04079   2.07900
   A19        2.05945   0.00210   0.00409   0.00446   0.00798   2.06743
   A20        2.10757  -0.00237  -0.00107  -0.01280  -0.01438   2.09319
   A21        2.08756   0.00051  -0.00692   0.00986   0.00321   2.09077
   A22        2.08758   0.00186   0.00792   0.00307   0.01123   2.09881
   A23        2.09364   0.00134   0.01201  -0.00652   0.00455   2.09819
   A24        2.09621  -0.00194  -0.01018  -0.00199  -0.01197   2.08424
   A25        2.09331   0.00061  -0.00164   0.00865   0.00719   2.10050
   A26        2.09993   0.00149   0.00136   0.01475   0.01391   2.11384
   A27        2.09294  -0.00151  -0.00206  -0.01030  -0.01175   2.08119
   A28        2.08461   0.00018   0.00140  -0.00041   0.00148   2.08609
   A29        3.11587   0.00185   0.04201   0.00346   0.04548   3.16134
   A30        3.20121   0.00127   0.00386   0.02199   0.02585   3.22707
   A31        3.13230   0.00036   0.00725   0.00219   0.00944   3.14174
   A32        3.08024   0.00064  -0.00616   0.02199   0.01584   3.09608
    D1       -2.96764  -0.00339  -0.01835  -0.05711  -0.07567  -3.04331
    D2        0.23328  -0.00148  -0.00235  -0.04123  -0.04504   0.18824
    D3       -0.07075   0.00223   0.00539   0.02965   0.03536  -0.03539
    D4        3.01399   0.00080  -0.00671   0.01243   0.00740   3.02139
    D5        3.12612  -0.00239  -0.01536  -0.03936  -0.05548   3.07063
    D6       -0.04065  -0.00202  -0.00678  -0.04039  -0.04657  -0.08722
    D7       -0.07289  -0.00433  -0.03114  -0.05459  -0.08565  -0.15854
    D8        3.04353  -0.00396  -0.02256  -0.05562  -0.07674   2.96679
    D9       -0.25872   0.00665   0.05788   0.14948   0.20960  -0.04912
   D10        2.71373   0.00822   0.06063   0.19368   0.25717   2.97090
   D11        2.90747   0.00634   0.04953   0.15088   0.20116   3.10862
   D12       -0.40327   0.00791   0.05228   0.19509   0.24872  -0.15455
   D13        0.40991  -0.00896  -0.06471  -0.16568  -0.22820   0.18171
   D14       -2.67033  -0.00663  -0.04545  -0.14168  -0.18471  -2.85504
   D15       -2.56359  -0.01084  -0.06858  -0.21098  -0.27733  -2.84092
   D16        0.63935  -0.00851  -0.04932  -0.18698  -0.23383   0.40552
   D17       -0.24646   0.00374   0.02423   0.07850   0.10227  -0.14419
   D18        2.94886   0.00542   0.03667   0.09559   0.13162   3.08048
   D19        2.83442   0.00168   0.00558   0.05437   0.06026   2.89468
   D20       -0.25344   0.00336   0.01803   0.07145   0.08960  -0.16384
   D21       -3.12020  -0.00206  -0.01483  -0.02941  -0.04690   3.11608
   D22        0.13670  -0.00366  -0.02164  -0.07007  -0.09280   0.04389
   D23        0.08382   0.00041   0.00462  -0.00447  -0.00188   0.08194
   D24       -2.94247  -0.00120  -0.00219  -0.04513  -0.04778  -2.99025
   D25       -2.84883  -0.00262  -0.01104  -0.06179  -0.07728  -2.92611
   D26        0.36095  -0.00543  -0.03160  -0.12650  -0.15982   0.20114
   D27        0.23860  -0.00335  -0.02148  -0.07660  -0.09866   0.13994
   D28       -2.83480  -0.00616  -0.04204  -0.14132  -0.18120  -3.01600
   D29       -0.05415   0.00066   0.00548   0.01943   0.02488  -0.02927
   D30        3.05426   0.00075   0.00261   0.02399   0.02707   3.08133
   D31        3.02157   0.00301   0.02440   0.08065   0.10502   3.12659
   D32       -0.15321   0.00310   0.02152   0.08520   0.10721  -0.04600
   D33       -0.12759   0.00201   0.01376   0.04850   0.06357  -0.06402
   D34        3.02229   0.00087   0.00135   0.02913   0.03109   3.05338
   D35        3.04719   0.00195   0.01688   0.04382   0.06152   3.10871
   D36       -0.08612   0.00081   0.00446   0.02444   0.02905  -0.05707
   D37        0.11153  -0.00269  -0.02031  -0.05419  -0.07469   0.03685
   D38        3.13837  -0.00121  -0.01378  -0.01438  -0.02953   3.10884
   D39       -3.03833  -0.00157  -0.00807  -0.03490  -0.04200  -3.08033
   D40       -0.01149  -0.00008  -0.00154   0.00491   0.00316  -0.00833
         Item               Value     Threshold  Converged?
 Maximum Force            0.021949     0.000450     NO 
 RMS     Force            0.005912     0.000300     NO 
 Maximum Displacement     0.611617     0.001800     NO 
 RMS     Displacement     0.158753     0.001200     NO 
 Predicted change in Energy=-1.907428D-02
 GradGradGradGradGradGradGradGradGradGradGradGradGradGradGradGradGradGrad

                          Input orientation:                          
 ---------------------------------------------------------------------
 Center     Atomic      Atomic             Coordinates (Angstroms)
 Number     Number       Type             X           Y           Z
 ---------------------------------------------------------------------
      1          7           0        3.850756    0.073999    1.962762
      2          6           0        4.610021   -0.152222    1.060821
      3          6           0        5.176383   -1.505415   -0.944653
      4          6           0        5.526025   -0.453157   -0.053439
      5          6           0        6.661704    0.447619   -0.179499
      6          6           0        7.640253    0.222490   -1.134317
      7          6           0        7.532311   -0.961607   -1.955327
      8          6           0        6.279824   -1.722757   -1.887922
      9          6           0        6.188544   -2.860455   -2.790614
     10          6           0        7.285920   -3.311434   -3.551274
     11          6           0        8.526194   -2.627717   -3.478330
     12          6           0        8.643342   -1.466363   -2.716233
     13          7           0        3.898479   -4.180268   -3.111480
     14          6           0        4.917213   -3.579439   -2.905128
     15          1           0        6.742144    1.328987    0.478838
     16          1           0        8.416051    0.966617   -1.353114
     17          1           0        7.184777   -4.209103   -4.176111
     18          1           0        9.398407   -3.033987   -4.008783
     19          1           0        9.618583   -0.962238   -2.642567
 ---------------------------------------------------------------------
                    Distance matrix (angstroms):
                    1          2          3          4          5
     1  N    0.000000
     2  C    1.200481   0.000000
     3  C    3.564393   2.484719   0.000000
     4  C    2.673852   1.473500   1.422589   0.000000
     5  C    3.553914   2.471358   2.570211   1.455010   0.000000
     6  C    4.896349   3.760498   3.015341   2.468756   1.385611
     7  C    5.475194   4.276919   2.620608   2.810851   2.428464
     8  C    4.894534   3.734958   1.467847   2.354872   2.788382
     9  C    6.055646   4.965865   2.503632   3.704881   4.240891
    10  C    7.325715   6.197780   3.808716   4.847868   5.088122
    11  C    7.665798   6.486014   4.347449   5.045751   4.880194
    12  C    6.872743   5.679859   3.893562   4.223118   3.745028
    13  N    6.621857   5.842905   3.671922   5.088406   6.135899
    14  C    6.179101   5.250613   2.865694   4.275093   5.166188
    15  H    3.483841   2.660570   3.537198   2.222229   1.103036
    16  H    5.712592   4.643786   4.095514   3.472343   2.173583
    17  H    8.194291   7.107258   4.667536   5.818506   6.158861
    18  H    8.723265   7.545469   5.436075   6.107436   5.854446
    19  H    7.453231   6.281473   4.786553   4.869474   4.098479
                    6          7          8          9         10
     6  C    0.000000
     7  C    1.444920   0.000000
     8  C    2.490516   1.467180   0.000000
     9  C    3.788842   2.471647   1.455177   0.000000
    10  C    4.296027   2.851218   2.510550   1.409333   0.000000
    11  C    3.795124   2.466427   2.897331   2.447800   1.418122
    12  C    2.522077   1.438106   2.517550   2.824015   2.438069
    13  N    6.106907   4.990110   3.634179   2.662566   3.524634
    14  C    5.000537   3.820196   2.517674   1.465037   2.469838
    15  H    2.152488   3.434580   3.889529   5.342959   6.170170
    16  H    1.097024   2.204928   3.475949   4.655607   4.940732
    17  H    5.394347   3.949543   3.498094   2.175071   1.098390
    18  H    4.685969   3.463200   3.992861   3.437625   2.179196
    19  H    2.755392   2.196549   3.506450   3.923049   3.433044
                   11         12         13         14         15
    11  C    0.000000
    12  C    1.394008   0.000000
    13  N    4.894970   5.480440   0.000000
    14  C    3.776119   4.287751   1.200581   0.000000
    15  H    5.873459   4.651561   7.164405   6.234921   0.000000
    16  H    4.177070   2.798062   7.070413   5.942831   2.507852
    17  H    2.187939   3.432387   3.454566   2.674643   7.248097
    18  H    1.098723   2.167545   5.689316   4.647222   6.799266
    19  H    2.160008   1.100301   6.579907   5.387166   4.823565
                   16         17         18         19
    16  H    0.000000
    17  H    6.022743   0.000000
    18  H    4.901269   2.511783   0.000000
    19  H    2.613284   4.337891   2.491419   0.000000
 Stoichiometry    C12H5N2(1-)
 Framework group  C1[X(C12H5N2)]
 Deg. of freedom    51
 Full point group                 C1      NOp   1
 Largest Abelian subgroup         C1      NOp   1
 Largest concise Abelian subgroup C1      NOp   1
                         Standard orientation:                         
 ---------------------------------------------------------------------
 Center     Atomic      Atomic             Coordinates (Angstroms)
 Number     Number       Type             X           Y           Z
 ---------------------------------------------------------------------
      1          7           0       -4.424039    1.132468   -0.344683
      2          6           0       -3.350047    0.618955   -0.189767
      3          6           0       -0.890284    0.878794    0.046626
      4          6           0       -2.019161    0.014573   -0.003576
      5          6           0       -2.019469   -1.423949    0.214852
      6          6           0       -0.828034   -2.123490    0.319936
      7          6           0        0.407824   -1.395591    0.144971
      8          6           0        0.332786    0.068990    0.100391
      9          6           0        1.610105    0.759242    0.002668
     10          6           0        2.823850    0.075812   -0.211730
     11          6           0        2.832240   -1.339228   -0.304798
     12          6           0        1.656529   -2.062179   -0.109082
     13          7           0        1.766241    3.404669    0.260724
     14          6           0        1.641420    2.219806    0.112688
     15          1           0       -2.974775   -1.966423    0.313841
     16          1           0       -0.800270   -3.172589    0.639435
     17          1           0        3.755678    0.644056   -0.335241
     18          1           0        3.767897   -1.858078   -0.554866
     19          1           0        1.669504   -3.157340   -0.214521
 ---------------------------------------------------------------------
 Rotational constants (GHZ):      1.0746092      0.5562367      0.3708913
 Standard basis: STO-3G (5D, 7F)
 There are    75 symmetry adapted cartesian basis functions of A   symmetry.
 There are    75 symmetry adapted basis functions of A   symmetry.
    75 basis functions,   225 primitive gaussians,    75 cartesian basis functions
    46 alpha electrons       46 beta electrons
       nuclear repulsion energy       694.8434799682 Hartrees.
 NAtoms=   19 NActive=   19 NUniq=   19 SFac= 1.00D+00 NAtFMM=   60 NAOKFM=F Big=F
 Integral buffers will be    131072 words long.
 Raffenetti 2 integral format.
 Two-electron integral symmetry is turned on.
 One-electron integrals computed using PRISM.
 NBasis=    75 RedAO= T EigKep=  1.76D-01  NBF=    75
 NBsUse=    75 1.00D-06 EigRej= -1.00D+00 NBFU=    75
 Initial guess from the checkpoint file:  "/tmp/bnp.472658.sequoia/Gau-26422.chk"
 B after Tr=     0.000000    0.000000    0.000000
         Rot=    0.999753   -0.003736    0.002296   -0.021807 Ang=  -2.55 deg.
 ExpMin= 1.69D-01 ExpMax= 9.91D+01 ExpMxC= 9.91D+01 IAcc=1 IRadAn=         1 AccDes= 0.00D+00
 Harris functional with IExCor=  402 and IRadAn=       1 diagonalized for initial guess.
 HarFok:  IExCor=  402 AccDes= 0.00D+00 IRadAn=         1 IDoV= 1 UseB2=F ITyADJ=14
 ICtDFT=  3500011 ScaDFX=  1.000000  1.000000  1.000000  1.000000
 FoFCou: FMM=F IPFlag=           0 FMFlag=      100000 FMFlg1=           0
         NFxFlg=           0 DoJE=T BraDBF=F KetDBF=T FulRan=T
         wScrn=  0.000000 ICntrl=     500 IOpCl=  0 I1Cent=   200000004 NGrid=           0
         NMat0=    1 NMatS0=      1 NMatT0=    0 NMatD0=    1 NMtDS0=    0 NMtDT0=    0
 Petite list used in FoFCou.
 Keep R1 ints in memory in canonical form, NReq=4993994.
 Requested convergence on RMS density matrix=1.00D-08 within 128 cycles.
 Requested convergence on MAX density matrix=1.00D-06.
 Requested convergence on             energy=1.00D-06.
 No special actions if energy rises.
 Integral accuracy reduced to 1.0D-05 until final iterations.
 Initial convergence to 1.0D-05 achieved.  Increase integral accuracy.
 SCF Done:  E(RB3LYP) =  -562.514588476     A.U. after   20 cycles
            NFock= 20  Conv=0.61D-08     -V/T= 2.0140
 Calling FoFJK, ICntrl=      2127 FMM=F ISym2X=0 I1Cent= 0 IOpClX= 0 NMat=1 NMatS=1 NMatT=0.
 ***** Axes restored to original set *****
 -------------------------------------------------------------------
 Center     Atomic                   Forces (Hartrees/Bohr)
 Number     Number              X              Y              Z
 -------------------------------------------------------------------
      1        7           0.001577248    0.000170690   -0.000735060
      2        6          -0.003566520   -0.000114058    0.002267693
      3        6          -0.009031076   -0.005156355    0.000854305
      4        6           0.005383402    0.008154059    0.000481934
      5        6           0.000740788    0.000392775    0.000534753
      6        6          -0.007999868    0.000061793   -0.003819560
      7        6           0.000102987   -0.003189209    0.002677231
      8        6           0.011215113    0.000277932   -0.004187747
      9        6           0.005356536    0.001795173   -0.001547589
     10        6          -0.003935884   -0.001611883   -0.000188078
     11        6           0.002718249    0.001259340    0.000667477
     12        6          -0.001570056    0.000168788   -0.001829360
     13        7           0.000713681   -0.000557782    0.000313406
     14        6          -0.003775747   -0.000790420    0.002380285
     15        1          -0.001857949    0.000151618   -0.001951926
     16        1           0.005464063   -0.004019157    0.005996251
     17        1           0.000340500    0.000706071   -0.000030899
     18        1          -0.000693705    0.001056055   -0.000871137
     19        1          -0.001181762    0.001244569   -0.001011977
 -------------------------------------------------------------------
 Cartesian Forces:  Max     0.011215113 RMS     0.003379987

 GradGradGradGradGradGradGradGradGradGradGradGradGradGradGradGradGradGrad
 Berny optimization.
 Using GEDIIS/GDIIS optimizer.
 FormGI is forming the generalized inverse of G from B-inverse, IUseBI=4.
 Internal  Forces:  Max     0.007866599 RMS     0.001975044
 Search for a local minimum.
 Step number   3 out of a maximum of  102
 All quantities printed in internal units (Hartrees-Bohrs-Radians)
 Mixed Optimization -- RFO/linear search
 Update second derivatives using D2CorX and points    2    3
 DE= -2.05D-02 DEPred=-1.91D-02 R= 1.07D+00
 TightC=F SS=  1.41D+00  RLast= 8.19D-01 DXNew= 8.4853D-01 2.4583D+00
 Trust test= 1.07D+00 RLast= 8.19D-01 DXMaxT set to 8.49D-01
 ITU=  1  1  0
 Use linear search instead of GDIIS.
     Eigenvalues ---    0.01664   0.01707   0.01798   0.01904   0.01953
     Eigenvalues ---    0.01972   0.02048   0.02067   0.02154   0.02177
     Eigenvalues ---    0.02182   0.02202   0.02227   0.02278   0.02315
     Eigenvalues ---    0.02780   0.04515   0.04529   0.15848   0.15929
     Eigenvalues ---    0.15982   0.15997   0.16014   0.20493   0.22099
     Eigenvalues ---    0.22576   0.23504   0.24507   0.24786   0.24960
     Eigenvalues ---    0.25113   0.34662   0.34680   0.34738   0.35105
     Eigenvalues ---    0.35141   0.38281   0.40015   0.40408   0.41453
     Eigenvalues ---    0.41996   0.42454   0.43932   0.45090   0.46053
     Eigenvalues ---    0.46329   0.46994   0.48372   0.54603   1.12650
     Eigenvalues ---    1.29657
 RFO step:  Lambda=-4.88292678D-03 EMin= 1.66416211D-02
 Quartic linear search produced a step of  0.41951.
 Iteration  1 RMS(Cart)=  0.13291172 RMS(Int)=  0.00798477
 Iteration  2 RMS(Cart)=  0.01031064 RMS(Int)=  0.00118223
 Iteration  3 RMS(Cart)=  0.00009388 RMS(Int)=  0.00117870
 Iteration  4 RMS(Cart)=  0.00000008 RMS(Int)=  0.00117870
 Variable       Old X    -DE/DX   Delta X   Delta X   Delta X     New X
                                 (Linear)    (Quad)   (Total)
    R1        2.26858  -0.00152   0.00529  -0.00287   0.00243   2.27101
    R2        2.78451   0.00240   0.01207   0.00220   0.01427   2.79878
    R3        2.68830   0.00610   0.00651   0.01589   0.02333   2.71163
    R4        2.77383   0.00787   0.01944   0.01476   0.03470   2.80852
    R5        2.74957  -0.00293   0.00905  -0.00989  -0.00040   2.74917
    R6        2.61843  -0.00129  -0.00528   0.00027  -0.00557   2.61285
    R7        2.08444  -0.00118   0.00343  -0.00597  -0.00254   2.08189
    R8        2.73050  -0.00084   0.01083  -0.00737   0.00246   2.73297
    R9        2.07307  -0.00006   0.00070  -0.00020   0.00050   2.07357
   R10        2.77257  -0.00456   0.00765  -0.01480  -0.00809   2.76448
   R11        2.71763  -0.00111   0.00389  -0.00360   0.00009   2.71771
   R12        2.74989  -0.00152   0.00592  -0.00613  -0.00056   2.74933
   R13        2.66325  -0.00149  -0.00782   0.00152  -0.00609   2.65717
   R14        2.76852   0.00311   0.01314   0.00325   0.01638   2.78490
   R15        2.67986   0.00237   0.00474   0.00587   0.01120   2.69107
   R16        2.07566  -0.00059   0.00145  -0.00285  -0.00140   2.07426
   R17        2.63429  -0.00052  -0.00439   0.00228  -0.00174   2.63256
   R18        2.07629  -0.00052   0.00183  -0.00286  -0.00104   2.07525
   R19        2.07927  -0.00055   0.00286  -0.00326  -0.00040   2.07887
   R20        2.26877  -0.00038   0.00092  -0.00013   0.00079   2.26956
    A1        1.90429  -0.00249  -0.04276   0.02037  -0.02414   1.88015
    A2        2.06237  -0.00008  -0.01492   0.00762  -0.00737   2.05500
    A3        2.00898   0.00003  -0.01186   0.00730  -0.00464   2.00434
    A4        2.20867   0.00015   0.02605  -0.00889   0.01508   2.22375
    A5        2.10638  -0.00018   0.00621  -0.00182   0.00125   2.10763
    A6        2.09426  -0.00058  -0.00910  -0.00020  -0.00772   2.08655
    A7        2.08243   0.00076   0.00296   0.00192   0.00642   2.08885
    A8        2.06228   0.00287   0.00128   0.01743   0.01278   2.07506
    A9        2.12546  -0.00149   0.00609  -0.00992  -0.00281   2.12265
   A10        2.08906  -0.00116  -0.00477  -0.00023  -0.00406   2.08500
   A11        2.05196  -0.00052  -0.00650   0.00413  -0.00630   2.04566
   A12        2.13005   0.00049   0.00597   0.00036   0.00919   2.13924
   A13        2.09640   0.00012  -0.00079   0.00217   0.00083   2.09723
   A14        2.20737   0.00075   0.03712  -0.01386   0.02156   2.22894
   A15        2.05697  -0.00160  -0.03137   0.00760  -0.02141   2.03556
   A16        2.01601   0.00090  -0.00639   0.00959   0.00184   2.01785
   A17        2.13667   0.00096   0.01454  -0.00148   0.01102   2.14769
   A18        2.07900  -0.00301  -0.01711  -0.00630  -0.02305   2.05595
   A19        2.06743   0.00205   0.00335   0.00794   0.01162   2.07904
   A20        2.09319  -0.00154  -0.00603  -0.00153  -0.00822   2.08497
   A21        2.09077   0.00122   0.00135   0.00515   0.00673   2.09750
   A22        2.09881   0.00034   0.00471  -0.00308   0.00186   2.10067
   A23        2.09819  -0.00060   0.00191  -0.00144  -0.00003   2.09816
   A24        2.08424   0.00043  -0.00502   0.00456  -0.00032   2.08392
   A25        2.10050   0.00018   0.00302  -0.00267   0.00049   2.10099
   A26        2.11384   0.00046   0.00583   0.00063   0.00453   2.11837
   A27        2.08119  -0.00087  -0.00493  -0.00284  -0.00784   2.07335
   A28        2.08609   0.00048   0.00062   0.00479   0.00535   2.09144
   A29        3.16134  -0.00184   0.01908  -0.12101  -0.10193   3.05941
   A30        3.22707   0.00074   0.01085   0.01070   0.02155   3.24862
   A31        3.14174  -0.00060   0.00396  -0.03969  -0.03573   3.10601
   A32        3.09608   0.00178   0.00664   0.04118   0.04783   3.14391
    D1       -3.04331  -0.00071  -0.03174  -0.00018  -0.03098  -3.07429
    D2        0.18824  -0.00215  -0.01889  -0.08618  -0.10514   0.08310
    D3       -0.03539   0.00094   0.01483   0.02517   0.03893   0.00354
    D4        3.02139   0.00179   0.00311   0.07543   0.07757   3.09896
    D5        3.07063  -0.00043  -0.02328   0.00719  -0.01571   3.05492
    D6       -0.08722  -0.00041  -0.01953   0.00013  -0.01881  -0.10603
    D7       -0.15854   0.00097  -0.03593   0.09095   0.05646  -0.10208
    D8        2.96679   0.00098  -0.03219   0.08390   0.05337   3.02016
    D9       -0.04912   0.00142   0.08793  -0.01930   0.07029   0.02118
   D10        2.97090   0.00342   0.10788   0.04979   0.15881   3.12970
   D11        3.10862   0.00141   0.08439  -0.01227   0.07352  -3.10104
   D12       -0.15455   0.00341   0.10434   0.05682   0.16204   0.00749
   D13        0.18171  -0.00231  -0.09573  -0.03204  -0.12732   0.05440
   D14       -2.85504  -0.00332  -0.07749  -0.10508  -0.18264  -3.03768
   D15       -2.84092  -0.00424  -0.11634  -0.09891  -0.21394  -3.05486
   D16        0.40552  -0.00525  -0.09810  -0.17194  -0.26926   0.13626
   D17       -0.14419   0.00156   0.04290   0.03163   0.07400  -0.07019
   D18        3.08048   0.00084   0.05522  -0.01756   0.03670   3.11718
[...]
 ! D13   D(5,6,7,8)             -0.0046         -DE/DX =    0.0                 !
 ! D14   D(5,6,7,12)          -179.9879         -DE/DX =    0.0                 !
 ! D15   D(16,6,7,8)          -180.0049         -DE/DX =    0.0                 !
 ! D16   D(16,6,7,12)            0.0118         -DE/DX =    0.0                 !
 ! D17   D(6,7,8,3)              0.019          -DE/DX =    0.0                 !
 ! D18   D(6,7,8,9)           -179.9899         -DE/DX =    0.0                 !
 ! D19   D(12,7,8,3)           180.0027         -DE/DX =    0.0                 !
 ! D20   D(12,7,8,9)            -0.0062         -DE/DX =    0.0                 !
 ! D21   D(6,7,12,11)          179.9837         -DE/DX =    0.0                 !
 ! D22   D(6,7,12,19)           -0.0115         -DE/DX =    0.0                 !
 ! D23   D(8,7,12,11)            0.0008         -DE/DX =    0.0                 !
 ! D24   D(8,7,12,19)         -179.9944         -DE/DX =    0.0                 !
 ! D25   D(3,8,9,10)          -179.9971         -DE/DX =    0.0                 !
 ! D26   D(3,8,9,14)            -0.0054         -DE/DX =    0.0                 !
 ! D27   D(7,8,9,10)             0.0108         -DE/DX =    0.0                 !
 ! D28   D(7,8,9,14)           180.0025         -DE/DX =    0.0                 !
 ! D29   D(8,9,10,11)           -0.0098         -DE/DX =    0.0                 !
 ! D30   D(8,9,10,17)          179.9916         -DE/DX =    0.0                 !
 ! D31   D(14,9,10,11)        -180.0013         -DE/DX =    0.0                 !
 ! D32   D(14,9,10,17)           0.0001         -DE/DX =    0.0                 !
 ! D33   D(9,10,11,12)           0.0037         -DE/DX =    0.0                 !
 ! D34   D(9,10,11,18)         179.9959         -DE/DX =    0.0                 !
 ! D35   D(17,10,11,12)        180.0023         -DE/DX =    0.0                 !
 ! D36   D(17,10,11,18)         -0.0055         -DE/DX =    0.0                 !
 ! D37   D(10,11,12,7)           0.0007         -DE/DX =    0.0                 !
 ! D38   D(10,11,12,19)       -180.0041         -DE/DX =    0.0                 !
 ! D39   D(18,11,12,7)        -179.9915         -DE/DX =    0.0                 !
 ! D40   D(18,11,12,19)          0.0037         -DE/DX =    0.0                 !
 --------------------------------------------------------------------------------
 GradGradGradGradGradGradGradGradGradGradGradGradGradGradGradGradGradGrad

                          Input orientation:                          
 ---------------------------------------------------------------------
 Center     Atomic      Atomic             Coordinates (Angstroms)
 Number     Number       Type             X           Y           Z
 ---------------------------------------------------------------------
      1          7           0        3.615917    0.400168    1.641579
      2          6           0        4.447919    0.038467    0.856462
      3          6           0        5.169923   -1.541557   -0.934066
      4          6           0        5.473708   -0.405292   -0.109292
      5          6           0        6.691081    0.379826   -0.105655
      6          6           0        7.734676    0.072334   -0.961799
      7          6           0        7.591002   -1.044394   -1.859427
      8          6           0        6.341548   -1.793261   -1.812906
      9          6           0        6.235685   -2.911150   -2.732484
     10          6           0        7.262519   -3.268175   -3.622113
     11          6           0        8.468432   -2.511989   -3.637706
     12          6           0        8.627786   -1.428709   -2.778679
     13          7           0        4.024646   -4.405567   -2.798756
     14          6           0        4.988162   -3.693937   -2.716841
     15          1           0        6.790408    1.231838    0.585213
     16          1           0        8.661953    0.658287   -0.969760
     17          1           0        7.138051   -4.122324   -4.300051
     18          1           0        9.270974   -2.791308   -4.333159
     19          1           0        9.562542   -0.849707   -2.796929
 ---------------------------------------------------------------------
                    Distance matrix (angstroms):
                    1          2          3          4          5
     1  N    0.000000
     2  C    1.199777   0.000000
     3  C    3.580388   2.494745   0.000000
     4  C    2.676883   1.477107   1.436536   0.000000
     5  C    3.536930   2.464543   2.586870   1.448592   0.000000
     6  C    4.883567   3.756327   3.030408   2.463102   1.384422
     7  C    5.490455   4.292739   2.639145   2.820347   2.431866
     8  C    4.916672   3.750544   1.486075   2.362605   2.785531
     9  C    6.079509   4.977637   2.499187   3.706894   4.235343
    10  C    7.379762   6.238067   3.819131   4.871945   5.099012
    11  C    7.739406   6.547282   4.373965   5.084904   4.898669
    12  C    6.928369   5.730458   3.920733   4.256902   3.763865
    13  N    6.555816   5.769681   3.604342   5.033409   6.104314
    14  C    6.135191   5.195304   2.800725   4.224955   5.129694
    15  H    3.447460   2.642909   3.553295   2.212743   1.101404
    16  H    5.687548   4.634366   4.127331   3.469368   2.169921
    17  H    8.255988   7.151127   4.675868   5.843700   6.169448
    18  H    8.823983   7.629001   5.471228   6.160629   5.880793
    19  H    7.524951   6.347873   4.821205   4.913192   4.123105
                    6          7          8          9         10
     6  C    0.000000
     7  C    1.439951   0.000000
     8  C    2.479039   1.457430   0.000000
     9  C    3.779349   2.466554   1.451381   0.000000
    10  C    4.296417   2.856600   2.509340   1.404740   0.000000
    11  C    3.791781   2.466981   2.893113   2.442114   1.423477
    12  C    2.520284   1.437931   2.508486   2.814589   2.441100
    13  N    6.098388   4.989862   3.628234   2.669526   3.529221
    14  C    4.980794   3.811825   2.502263   1.472859   2.484651
    15  H    2.151590   3.434887   3.886345   5.336589   6.178559
    16  H    1.096926   2.199447   3.479262   4.662065   4.940698
    17  H    5.393983   3.954171   3.499263   2.176804   1.097572
    18  H    4.682598   3.463144   3.991154   3.433585   2.183319
    19  H    2.749355   2.191754   3.497628   3.914292   3.438026
                   11         12         13         14         15
    11  C    0.000000
    12  C    1.391695   0.000000
    13  N    4.902725   5.481878   0.000000
    14  C    3.789099   4.287417   1.200621   0.000000
    15  H    5.887703   4.665859   7.133094   6.197976   0.000000
    16  H    4.148016   2.762048   7.105805   5.957423   2.499917
    17  H    2.191300   3.433576   3.468055   2.704089   7.256288
    18  H    1.098065   2.164896   5.699490   4.665801   6.821239
    19  H    2.160362   1.099703   6.581219   5.387115   4.843185
                   16         17         18         19
    16  H    0.000000
    17  H    6.022239   0.000000
    18  H    4.856240   2.514370   0.000000
    19  H    2.534492   4.341377   2.492956   0.000000
 Stoichiometry    C12H5N2(1-)
 Framework group  C1[X(C12H5N2)]
 Deg. of freedom    51
 Full point group                 C1      NOp   1
 Largest Abelian subgroup         C1      NOp   1
 Largest concise Abelian subgroup C1      NOp   1
                         Standard orientation:                         
 ---------------------------------------------------------------------
 Center     Atomic      Atomic             Coordinates (Angstroms)
 Number     Number       Type             X           Y           Z
 ---------------------------------------------------------------------
      1          7           0       -4.471358    1.055967   -0.000413
      2          6           0       -3.371721    0.576112   -0.000039
      3          6           0       -0.895371    0.878512    0.000340
      4          6           0       -2.018816   -0.016758    0.000205
      5          6           0       -1.990588   -1.465075    0.000028
      6          6           0       -0.787451   -2.149974    0.000098
      7          6           0        0.440344   -1.397659    0.000204
      8          6           0        0.342654    0.056493    0.000127
      9          6           0        1.601808    0.778322    0.000009
     10          6           0        2.850755    0.135340   -0.000255
     11          6           0        2.904847   -1.287109   -0.000205
     12          6           0        1.730132   -2.033340    0.000026
     13          7           0        1.632614    3.447670    0.000122
     14          6           0        1.546491    2.250142   -0.000014
     15          1           0       -2.935726   -2.030586   -0.000216
     16          1           0       -0.751324   -3.246305    0.000071
     17          1           0        3.777903    0.722759   -0.000475
     18          1           0        3.881251   -1.789487   -0.000480
     19          1           0        1.780584   -3.131885   -0.000006
 ---------------------------------------------------------------------
 Rotational constants (GHZ):      1.0852887      0.5572041      0.3681765

 **********************************************************************

            Population analysis using the SCF density.

 **********************************************************************

 Orbital symmetries:
       Occupied  (A) (A) (A) (A) (A) (A) (A) (A) (A) (A) (A) (A)
                 (A) (A) (A) (A) (A) (A) (A) (A) (A) (A) (A) (A)
                 (A) (A) (A) (A) (A) (A) (A) (A) (A) (A) (A) (A)
                 (A) (A) (A) (A) (A) (A) (A) (A) (A) (A)
       Virtual   (A) (A) (A) (A) (A) (A) (A) (A) (A) (A) (A) (A)
                 (A) (A) (A) (A) (A) (A) (A) (A) (A) (A) (A) (A)
                 (A) (A) (A) (A) (A)
 The electronic state is 1-A.
 Alpha  occ. eigenvalues --  -13.96987 -13.92973  -9.89557  -9.87831  -9.87803
 Alpha  occ. eigenvalues --   -9.87682  -9.87319  -9.86451  -9.84850  -9.83868
 Alpha  occ. eigenvalues --   -9.83809  -9.83777  -9.82502  -9.68254  -0.70444
 Alpha  occ. eigenvalues --   -0.67595  -0.66877  -0.61622  -0.57981  -0.54353
 Alpha  occ. eigenvalues --   -0.51088  -0.44682  -0.42340  -0.39539  -0.33977
 Alpha  occ. eigenvalues --   -0.32882  -0.30417  -0.27800  -0.24860  -0.22846
 Alpha  occ. eigenvalues --   -0.20464  -0.19865  -0.19659  -0.17224  -0.14948
 Alpha  occ. eigenvalues --   -0.13495  -0.13332  -0.13171  -0.11104  -0.09973
 Alpha  occ. eigenvalues --   -0.09960  -0.07894  -0.05931  -0.02976   0.01970
 Alpha  occ. eigenvalues --    0.10317
 Alpha virt. eigenvalues --    0.17676   0.21338   0.27047   0.28164   0.29982
 Alpha virt. eigenvalues --    0.31316   0.33451   0.39156   0.44521   0.46328
 Alpha virt. eigenvalues --    0.47372   0.49643   0.53611   0.54954   0.57377
 Alpha virt. eigenvalues --    0.58398   0.59019   0.62031   0.67697   0.69070
 Alpha virt. eigenvalues --    0.70175   0.76059   0.78091   0.82124   0.84631
 Alpha virt. eigenvalues --    0.92377   0.92920   1.07586   1.10874
          Condensed to atoms (all electrons):
               1          2          3          4          5          6
     1  N    6.632223   0.660003   0.000004  -0.010972  -0.000035  -0.000001
     2  C    0.660003   4.972441  -0.032955   0.403308  -0.038567   0.000917
     3  C    0.000004  -0.032955   5.464864   0.439448  -0.018155  -0.005577
     4  C   -0.010972   0.403308   0.439448   4.890776   0.451745  -0.029877
     5  C   -0.000035  -0.038567  -0.018155   0.451745   4.850850   0.529333
     6  C   -0.000001   0.000917  -0.005577  -0.029877   0.529333   4.862527
     7  C    0.000000   0.000005  -0.016645  -0.012062  -0.028881   0.465463
     8  C   -0.000003   0.001463   0.388421  -0.029442  -0.013122  -0.030485
     9  C    0.000000  -0.000005  -0.037036   0.001425   0.000012   0.000880
    10  C    0.000000   0.000000   0.000748  -0.000015   0.000001   0.000031
    11  C    0.000000   0.000000   0.000017   0.000001  -0.000008   0.000769
    12  C    0.000000   0.000000   0.000574   0.000052   0.000801  -0.029127
    13  N    0.000000   0.000000  -0.000769   0.000002   0.000000   0.000000
    14  C    0.000000  -0.000001   0.004636  -0.000015   0.000001  -0.000005
    15  H    0.000040  -0.003273   0.000946  -0.023023   0.381041  -0.027101
    16  H    0.000000  -0.000020  -0.000006   0.001269  -0.025349   0.386791
    17  H    0.000000   0.000000  -0.000017   0.000000   0.000000   0.000001
    18  H    0.000000   0.000000   0.000000   0.000000   0.000000  -0.000017
    19  H    0.000000   0.000000  -0.000013  -0.000002   0.000015  -0.003331
               7          8          9         10         11         12
     1  N    0.000000  -0.000003   0.000000   0.000000   0.000000   0.000000
     2  C    0.000005   0.001463  -0.000005   0.000000   0.000000   0.000000
     3  C   -0.016645   0.388421  -0.037036   0.000748   0.000017   0.000574
     4  C   -0.012062  -0.029442   0.001425  -0.000015   0.000001   0.000052
     5  C   -0.028881  -0.013122   0.000012   0.000001  -0.000008   0.000801
     6  C    0.465463  -0.030485   0.000880   0.000031   0.000769  -0.029127
     7  C    4.817271   0.445731  -0.033308  -0.008430  -0.027737   0.467671
     8  C    0.445731   4.901915   0.454559  -0.025613  -0.008200  -0.023415
     9  C   -0.033308   0.454559   4.785595   0.505184  -0.028840  -0.010307
    10  C   -0.008430  -0.025613   0.505184   4.840780   0.481041  -0.029548
    11  C   -0.027737  -0.008200  -0.028840   0.481041   4.824489   0.521379
    12  C    0.467671  -0.023415  -0.010307  -0.029548   0.521379   4.837051
    13  N   -0.000002   0.000085  -0.010136  -0.000256  -0.000001   0.000000
    14  C    0.000949  -0.030119   0.407336  -0.030443   0.000907   0.000013
    15  H    0.001465   0.000092   0.000001   0.000000   0.000000  -0.000017
    16  H   -0.025274   0.001159  -0.000020   0.000000   0.000011  -0.003272
    17  H    0.000017   0.001167  -0.024761   0.387129  -0.024660   0.001332
    18  H    0.001352   0.000021   0.001327  -0.025480   0.387232  -0.025635
    19  H   -0.024795   0.001150   0.000018   0.001437  -0.026620   0.384274
              13         14         15         16         17         18
     1  N    0.000000   0.000000   0.000040   0.000000   0.000000   0.000000
     2  C    0.000000  -0.000001  -0.003273  -0.000020   0.000000   0.000000
     3  C   -0.000769   0.004636   0.000946  -0.000006  -0.000017   0.000000
     4  C    0.000002  -0.000015  -0.023023   0.001269   0.000000   0.000000
     5  C    0.000000   0.000001   0.381041  -0.025349   0.000000   0.000000
     6  C    0.000000  -0.000005  -0.027101   0.386791   0.000001  -0.000017
     7  C   -0.000002   0.000949   0.001465  -0.025274   0.000017   0.001352
     8  C    0.000085  -0.030119   0.000092   0.001159   0.001167   0.000021
     9  C   -0.010136   0.407336   0.000001  -0.000020  -0.024761   0.001327
    10  C   -0.000256  -0.030443   0.000000   0.000000   0.387129  -0.025480
    11  C   -0.000001   0.000907   0.000000   0.000011  -0.024660   0.387232
    12  C    0.000000   0.000013  -0.000017  -0.003272   0.001332  -0.025635
    13  N    6.589940   0.659930   0.000000   0.000000   0.000072   0.000000
    14  C    0.659930   4.920711   0.000000   0.000000  -0.003388  -0.000017
    15  H    0.000000   0.000000   0.625367  -0.003858   0.000000   0.000000
    16  H    0.000000   0.000000  -0.003858   0.627306   0.000000  -0.000001
    17  H    0.000072  -0.003388   0.000000   0.000000   0.606218  -0.003348
    18  H    0.000000  -0.000017   0.000000  -0.000001  -0.003348   0.615774
    19  H    0.000000   0.000001  -0.000002   0.001014  -0.000034  -0.003774
              19
     1  N    0.000000
     2  C    0.000000
     3  C   -0.000013
     4  C   -0.000002
     5  C    0.000015
     6  C   -0.003331
     7  C   -0.024795
     8  C    0.001150
     9  C    0.000018
    10  C    0.001437
    11  C   -0.026620
    12  C    0.384274
    13  N    0.000000
    14  C    0.000001
    15  H   -0.000002
    16  H    0.001014
    17  H   -0.000034
    18  H   -0.003774
    19  H    0.617920
 Mulliken charges:
               1
     1  N   -0.281258
     2  C    0.036686
     3  C   -0.188484
     4  C   -0.082617
     5  C   -0.089682
     6  C   -0.121191
     7  C   -0.022789
     8  C   -0.035363
     9  C   -0.011925
    10  C   -0.096564
    11  C   -0.099779
    12  C   -0.091829
    13  N   -0.238865
    14  C    0.069506
    15  H    0.048322
    16  H    0.040250
    17  H    0.060274
    18  H    0.052566
    19  H    0.052743
 Sum of Mulliken charges =  -1.00000
 Mulliken charges with hydrogens summed into heavy atoms:
               1
     1  N   -0.281258
     2  C    0.036686
     3  C   -0.188484
     4  C   -0.082617
     5  C   -0.041360
     6  C   -0.080940
     7  C   -0.022789
     8  C   -0.035363
     9  C   -0.011925
    10  C   -0.036290
    11  C   -0.047214
    12  C   -0.039085
    13  N   -0.238865
    14  C    0.069506
 Electronic spatial extent (au):  <R**2>=           2783.0876
 Charge=             -1.0000 electrons
 Dipole moment (field-independent basis, Debye):
    X=              5.5596    Y=             -6.2641    Z=             -0.0004  Tot=              8.3754
 Quadrupole moment (field-independent basis, Debye-Ang):
   XX=           -108.6289   YY=            -96.0773   ZZ=            -74.1672
   XY=              3.8122   XZ=             -0.0032   YZ=             -0.0006
 Traceless Quadrupole moment (field-independent basis, Debye-Ang):
   XX=            -15.6711   YY=             -3.1195   ZZ=             18.7906
   XY=              3.8122   XZ=             -0.0032   YZ=             -0.0006
 Octapole moment (field-independent basis, Debye-Ang**2):
  XXX=            144.1224  YYY=            -69.7015  ZZZ=             -0.0007  XYY=            -14.9379
  XXY=            -46.7187  XXZ=              0.0113  XZZ=             -3.0037  YZZ=              5.4336
  YYZ=             -0.0050  XYZ=             -0.0048
 Hexadecapole moment (field-independent basis, Debye-Ang**3):
 XXXX=          -2971.1508 YYYY=          -1459.5976 ZZZZ=            -58.3865 XXXY=            184.3223
 XXXZ=             -0.0884 YYYX=            -98.5755 YYYZ=             -0.0105 ZZZX=              0.0058
 ZZZY=              0.0000 XXYY=           -664.8755 XXZZ=           -395.2386 YYZZ=           -214.2345
 XXYZ=              0.0218 YYXZ=             -0.0077 ZZXY=              1.7223
 N-N= 6.947885220555D+02 E-N=-2.712342767418D+03  KE= 5.547523454589D+02
 1\1\GINC-N053\FOpt\RB3LYP\STO-3G\C12H5N2(1-)\R2532\15-Jun-2021\0\\#N B
 3LYP/STO-3G OPT\\2Naph\\-1,1\N,3.6159167049,0.4001678843,1.6415787726\
 C,4.4479186356,0.0384668878,0.8564615264\C,5.1699227039,-1.5415569885,
 -0.934066141\C,5.4737083523,-0.4052922143,-0.1092918158\C,6.6910807097
 ,0.3798255633,-0.1056550327\C,7.7346761497,0.0723341715,-0.9617989642\
 C,7.5910017419,-1.0443938085,-1.8594267972\C,6.3415475934,-1.793260553
 8,-1.8129063882\C,6.2356846735,-2.9111498075,-2.7324835151\C,7.2625185
 248,-3.2681745551,-3.6221131884\C,8.4684321363,-2.5119889024,-3.637706
 1505\C,8.6277857859,-1.4287092189,-2.7786792233\N,4.0246458526,-4.4055
 673407,-2.7987564499\C,4.9881619584,-3.6939367263,-2.7168405124\H,6.79
 04081112,1.2318379492,0.5852131826\H,8.6619531591,0.6582870945,-0.9697
 602324\H,7.1380511603,-4.1223240449,-4.3000513771\H,9.2709739234,-2.79
 13082184,-4.3331591184\H,9.562542123,-0.8497071711,-2.7969285752\\Vers
 ion=ES64L-G09RevD.01\State=1-A\HF=-562.5204422\RMSD=7.815e-09\RMSF=1.1
 57e-05\Dipole=2.912864,0.115439,-1.536168\Quadrupole=-3.148311,2.43402
 49,0.714286,-1.0271441,8.724721,-9.5306654\PG=C01 [X(C12H5N2)]\\@


 COMMON SENSE IS NOT SO COMMON.   -- VOLTAIRE
 Job cpu time:       0 days  0 hours  4 minutes 49.8 seconds.
 File lengths (MBytes):  RWF=      5 Int=      0 D2E=      0 Chk=      2 Scr=      1
 Normal termination of Gaussian 09 at Tue Jun 15 11:13:49 2021.
