 Entering Gaussian System, Link 0=/usr/local/apps//g09/g09
 Input=11.com
 Output=11.out
 Initial command:
 /usr/local/apps//g09/l1.exe "/tmp/bnp.472668.sequoia/Gau-8276.inp" -scrdir="/tmp/bnp.472668.sequoia/"
 Entering Link 1 = /usr/local/apps//g09/l1.exe PID=      8277.
  
 Copyright (c) 1988,1990,1992,1993,1995,1998,2003,2009,2013,
            Gaussian, Inc.  All Rights Reserved.
  
 This is part of the Gaussian(R) 09 program.  It is based on
 the Gaussian(R) 03 system (copyright 2003, Gaussian, Inc.),
 the Gaussian(R) 98 system (copyright 1998, Gaussian, Inc.),
 the Gaussian(R) 94 system (copyright 1995, Gaussian, Inc.),
 the Gaussian 92(TM) system (copyright 1992, Gaussian, Inc.),
 the Gaussian 90(TM) system (copyright 1990, Gaussian, Inc.),
 the Gaussian 88(TM) system (copyright 1988, Gaussian, Inc.),
 the Gaussian 86(TM) system (copyright 1986, Carnegie Mellon
 University), and the Gaussian 82(TM) system (copyright 1983,
 Carnegie Mellon University). Gaussian is a federally registered
 trademark of Gaussian, Inc.
  
 This software contains proprietary and confidential information,
 including trade secrets, belonging to Gaussian, Inc.
  
 This software is provided under written license and may be
 used, copied, transmitted, or stored only in accord with that
 written license.
  
 The following legend is applicable only to US Government
 contracts under FAR:
  
                    RESTRICTED RIGHTS LEGEND
  
 Use, reproduction and disclosure by the US Government is
 subject to restrictions as set forth in subparagraphs (a)
 and (c) of the Commercial Computer Software - Restricted
 Rights clause in FAR 52.227-19.
  
 Gaussian, Inc.
 340 Quinnipiac St., Bldg. 40, Wallingford CT 06492
  
  
 ---------------------------------------------------------------
 Warning -- This program may not be used in any manner that
 competes with the business of Gaussian, Inc. or will provide
 assistance to any competitor of Gaussian, Inc.  The licensee
 of this program is prohibited from giving any competitor of
 Gaussian, Inc. access to this program.  By using this program,
 the user acknowledges that Gaussian, Inc. is engaged in the
 business of creating and licensing software in the field of
 computational chemistry and represents and warrants to the
 licensee that it is not a competitor of Gaussian, Inc. and that
 it will not use this program in any manner prohibited above.
 ---------------------------------------------------------------
  

 Cite this work as:
 Gaussian 09, Revision D.01,
 M. J. Frisch, G. W. Trucks, H. B. Schlegel, G. E. Scuseria, 
 M. A. Robb, J. R. Cheeseman, G. Scalmani, V. Barone, B. Mennucci, 
 G. A. Petersson, H. Nakatsuji, M. Caricato, X. Li, H. P. Hratchian, 
 A. F. Izmaylov, J. Bloino, G. Zheng, J. L. Sonnenberg, M. Hada, 
 M. Ehara, K. Toyota, R. Fukuda, J. Hasegawa, M. Ishida, T. Nakajima, 
 Y. Honda, O. Kitao, H. Nakai, T. Vreven, J. A. Montgomery, Jr., 
 J. E. Peralta, F. Ogliaro, M. Bearpark, J. J. Heyd, E. Brothers, 
 K. N. Kudin, V. N. Staroverov, T. Keith, R. Kobayashi, J. Normand, 
 K. Raghavachari, A. Rendell, J. C. Burant, S. S. Iyengar, J. Tomasi, 
 M. Cossi, N. Rega, J. M. Millam, M. Klene, J. E. Knox, J. B. Cross, 
 V. Bakken, C. Adamo, J. Jaramillo, R. Gomperts, R. E. Stratmann, 
 O. Yazyev, A. J. Austin, R. Cammi, C. Pomelli, J. W. Ochterski, 
 R. L. Martin, K. Morokuma, V. G. Zakrzewski, G. A. Voth, 
 P. Salvador, J. J. Dannenberg, S. Dapprich, A. D. Daniels, 
 O. Farkas, J. B. Foresman, J. V. Ortiz, J. Cioslowski, 
 and D. J. Fox, Gaussian, Inc., Wallingford CT, 2013.
 
 ******************************************
 Gaussian 09:  ES64L-G09RevD.01 24-Apr-2013
                15-Jun-2021 
 ******************************************
 -------------------
 #N B3LYP/STO-3G OPT
 -------------------
 1/14=-1,18=20,19=15,26=3,38=1/1,3;
 2/9=110,12=2,17=6,18=5,40=1/2;
 3/6=3,11=2,16=1,25=1,30=1,71=1,74=-5/1,2,3;
 4//1;
 5/5=2,38=5/2;
 6/7=2,8=2,9=2,10=2,28=1/1;
 7//1,2,3,16;
 1/14=-1,18=20,19=15,26=3/3(2);
 2/9=110/2;
 99//99;
 2/9=110/2;
 3/6=3,11=2,16=1,25=1,30=1,71=1,74=-5/1,2,3;
 4/5=5,16=3,69=1/1;
 5/5=2,38=5/2;
 7//1,2,3,16;
 1/14=-1,18=20,19=15,26=3/3(-5);
 2/9=110/2;
 6/7=2,8=2,9=2,10=2,19=2,28=1/1;
 99/9=1/99;
 -----
 1Naph
 -----
 Symbolic Z-matrix:
 Charge = -1 Multiplicity = 1
 N                     1.04699  -0.02865   0.04877 
 C                     2.20618  -0.06712   0.04896 
 C                     3.6443   -0.09197   0.04921 
 C                     4.32254   1.14049   0.04958 
 C                     5.71845   1.17737   0.0499 
 C                     6.44027  -0.01634   0.04959 
 C                     5.78074  -1.24841   0.04926 
 C                     4.36575  -1.31619   0.04915 
 C                     3.77859  -2.60779   0.04906 
 C                     4.56323  -3.767     0.04911 
 C                     5.94927  -3.6685    0.04911 
 C                     6.54702  -2.41501   0.04918 
 N                     6.99513   3.43533   0.05177 
 C                     6.41803   2.42921   0.05084 
 H                     3.75761   2.07347   0.04964 
 H                     7.53049   0.01151   0.04973 
 H                     2.69548  -2.73122   0.04911 
 H                     4.09122  -4.74707   0.04914 
 H                     6.57138  -4.55889   0.04911 
 

 GradGradGradGradGradGradGradGradGradGradGradGradGradGradGradGradGradGrad
 Berny optimization.
 Initialization pass.
                           ----------------------------
                           !    Initial Parameters    !
                           ! (Angstroms and Degrees)  !
 --------------------------                            --------------------------
 ! Name  Definition              Value          Derivative Info.                !
 --------------------------------------------------------------------------------
 ! R1    R(1,2)                  1.1598         estimate D2E/DX2                !
 ! R2    R(2,3)                  1.4383         estimate D2E/DX2                !
 ! R3    R(3,4)                  1.4068         estimate D2E/DX2                !
 ! R4    R(3,8)                  1.421          estimate D2E/DX2                !
 ! R5    R(4,5)                  1.3964         estimate D2E/DX2                !
 ! R6    R(4,15)                 1.0907         estimate D2E/DX2                !
 ! R7    R(5,6)                  1.395          estimate D2E/DX2                !
 ! R8    R(5,14)                 1.4341         estimate D2E/DX2                !
 ! R9    R(6,7)                  1.3975         estimate D2E/DX2                !
 ! R10   R(6,16)                 1.0906         estimate D2E/DX2                !
 ! R11   R(7,8)                  1.4166         estimate D2E/DX2                !
 ! R12   R(7,12)                 1.3958         estimate D2E/DX2                !
 ! R13   R(8,9)                  1.4188         estimate D2E/DX2                !
 ! R14   R(9,10)                 1.3998         estimate D2E/DX2                !
 ! R15   R(9,17)                 1.0901         estimate D2E/DX2                !
 ! R16   R(10,11)                1.3895         estimate D2E/DX2                !
 ! R17   R(10,18)                1.0878         estimate D2E/DX2                !
 ! R18   R(11,12)                1.3887         estimate D2E/DX2                !
 ! R19   R(11,19)                1.0862         estimate D2E/DX2                !
 ! R20   R(13,14)                1.1599         estimate D2E/DX2                !
 ! A1    A(2,3,4)              117.8347         estimate D2E/DX2                !
 ! A2    A(2,3,8)              121.5014         estimate D2E/DX2                !
 ! A3    A(4,3,8)              120.664          estimate D2E/DX2                !
 ! A4    A(3,4,5)              120.338          estimate D2E/DX2                !
 ! A5    A(3,4,15)             119.98           estimate D2E/DX2                !
 ! A6    A(5,4,15)             119.682          estimate D2E/DX2                !
 ! A7    A(4,5,6)              119.6474         estimate D2E/DX2                !
 ! A8    A(4,5,14)             120.7117         estimate D2E/DX2                !
 ! A9    A(6,5,14)             119.641          estimate D2E/DX2                !
 ! A10   A(5,6,7)              120.679          estimate D2E/DX2                !
 ! A11   A(5,6,16)             119.6975         estimate D2E/DX2                !
 ! A12   A(7,6,16)             119.6236         estimate D2E/DX2                !
 ! A13   A(6,7,8)              120.9027         estimate D2E/DX2                !
 ! A14   A(6,7,12)             118.5409         estimate D2E/DX2                !
 ! A15   A(8,7,12)             120.5564         estimate D2E/DX2                !
 ! A16   A(3,8,7)              117.769          estimate D2E/DX2                !
 ! A17   A(3,8,9)              125.0421         estimate D2E/DX2                !
 ! A18   A(7,8,9)              117.1889         estimate D2E/DX2                !
 ! A19   A(8,9,10)             121.4604         estimate D2E/DX2                !
 ! A20   A(8,9,17)             120.9478         estimate D2E/DX2                !
 ! A21   A(10,9,17)            117.5918         estimate D2E/DX2                !
 ! A22   A(9,10,11)            120.0281         estimate D2E/DX2                !
 ! A23   A(9,10,18)            120.1911         estimate D2E/DX2                !
 ! A24   A(11,10,18)           119.7808         estimate D2E/DX2                !
 ! A25   A(10,11,12)           119.5599         estimate D2E/DX2                !
 ! A26   A(10,11,19)           120.8768         estimate D2E/DX2                !
 ! A27   A(12,11,19)           119.5632         estimate D2E/DX2                !
 ! A28   A(7,12,11)            121.2061         estimate D2E/DX2                !
 ! A29   L(1,2,3,17,-1)        180.9108         estimate D2E/DX2                !
 ! A30   L(5,14,13,16,-1)      179.3601         estimate D2E/DX2                !
 ! A31   L(1,2,3,17,-2)        180.0006         estimate D2E/DX2                !
 ! A32   L(5,14,13,16,-2)      180.0103         estimate D2E/DX2                !
 ! D1    D(2,3,4,5)            179.9969         estimate D2E/DX2                !
 ! D2    D(2,3,4,15)            -0.0018         estimate D2E/DX2                !
 ! D3    D(8,3,4,5)             -0.0003         estimate D2E/DX2                !
 ! D4    D(8,3,4,15)          -179.9989         estimate D2E/DX2                !
 ! D5    D(2,3,8,7)            179.9931         estimate D2E/DX2                !
 ! D6    D(2,3,8,9)             -0.0104         estimate D2E/DX2                !
 ! D7    D(4,3,8,7)             -0.0098         estimate D2E/DX2                !
 ! D8    D(4,3,8,9)            179.9867         estimate D2E/DX2                !
 ! D9    D(3,4,5,6)              0.0123         estimate D2E/DX2                !
 ! D10   D(3,4,5,14)          -179.9739         estimate D2E/DX2                !
 ! D11   D(15,4,5,6)          -179.989          estimate D2E/DX2                !
 ! D12   D(15,4,5,14)            0.0248         estimate D2E/DX2                !
 ! D13   D(4,5,6,7)             -0.0142         estimate D2E/DX2                !
 ! D14   D(4,5,6,16)           179.9934         estimate D2E/DX2                !
 ! D15   D(14,5,6,7)           179.9722         estimate D2E/DX2                !
 ! D16   D(14,5,6,16)           -0.0202         estimate D2E/DX2                !
 ! D17   D(5,6,7,8)              0.0039         estimate D2E/DX2                !
 ! D18   D(5,6,7,12)          -179.9896         estimate D2E/DX2                !
 ! D19   D(16,6,7,8)           179.9963         estimate D2E/DX2                !
 ! D20   D(16,6,7,12)            0.0029         estimate D2E/DX2                !
 ! D21   D(6,7,8,3)              0.008          estimate D2E/DX2                !
 ! D22   D(6,7,8,9)           -179.9887         estimate D2E/DX2                !
 ! D23   D(12,7,8,3)          -179.9986         estimate D2E/DX2                !
 ! D24   D(12,7,8,9)             0.0046         estimate D2E/DX2                !
 ! D25   D(6,7,12,11)          179.9878         estimate D2E/DX2                !
 ! D26   D(8,7,12,11)           -0.0057         estimate D2E/DX2                !
 ! D27   D(3,8,9,10)          -179.995          estimate D2E/DX2                !
 ! D28   D(3,8,9,17)            -0.0048         estimate D2E/DX2                !
 ! D29   D(7,8,9,10)             0.0015         estimate D2E/DX2                !
 ! D30   D(7,8,9,17)           179.9916         estimate D2E/DX2                !
 ! D31   D(8,9,10,11)           -0.0067         estimate D2E/DX2                !
 ! D32   D(8,9,10,18)          179.9938         estimate D2E/DX2                !
 ! D33   D(17,9,10,11)        -179.9971         estimate D2E/DX2                !
 ! D34   D(17,9,10,18)           0.0034         estimate D2E/DX2                !
 ! D35   D(9,10,11,12)           0.0057         estimate D2E/DX2                !
 ! D36   D(9,10,11,19)        -179.9976         estimate D2E/DX2                !
 ! D37   D(18,10,11,12)       -179.9949         estimate D2E/DX2                !
 ! D38   D(18,10,11,19)          0.0018         estimate D2E/DX2                !
 ! D39   D(10,11,12,7)           0.0005         estimate D2E/DX2                !
 ! D40   D(19,11,12,7)        -179.9963         estimate D2E/DX2                !
 --------------------------------------------------------------------------------
 Trust Radius=3.00D-01 FncErr=1.00D-07 GrdErr=1.00D-06
 Number of steps in this run=    102 maximum allowed number of steps=    114.
 GradGradGradGradGradGradGradGradGradGradGradGradGradGradGradGradGradGrad

                          Input orientation:                          
 ---------------------------------------------------------------------
 Center     Atomic      Atomic             Coordinates (Angstroms)
 Number     Number       Type             X           Y           Z
 ---------------------------------------------------------------------
      1          7           0        1.046990   -0.028650    0.048770
      2          6           0        2.206180   -0.067120    0.048960
      3          6           0        3.644300   -0.091970    0.049210
      4          6           0        4.322540    1.140490    0.049580
      5          6           0        5.718450    1.177370    0.049900
      6          6           0        6.440270   -0.016340    0.049590
      7          6           0        5.780740   -1.248410    0.049260
      8          6           0        4.365750   -1.316190    0.049150
      9          6           0        3.778590   -2.607790    0.049060
     10          6           0        4.563230   -3.767000    0.049110
     11          6           0        5.949270   -3.668500    0.049110
     12          6           0        6.547020   -2.415010    0.049180
     13          7           0        6.995130    3.435330    0.051770
     14          6           0        6.418030    2.429210    0.050840
     15          1           0        3.757610    2.073470    0.049640
     16          1           0        7.530490    0.011510    0.049730
     17          1           0        2.695480   -2.731220    0.049110
     18          1           0        4.091220   -4.747070    0.049140
     19          1           0        6.571380   -4.558890    0.049110
 ---------------------------------------------------------------------
                    Distance matrix (angstroms):
                    1          2          3          4          5
     1  N    0.000000
     2  C    1.159828   0.000000
     3  C    2.598082   1.438335   0.000000
     4  C    3.477947   2.436658   1.406758   0.000000
     5  C    4.824627   3.726231   2.431732   1.396397   0.000000
     6  C    5.393294   4.234395   2.796993   2.413097   1.394979
     7  C    4.888374   3.764695   2.429348   2.798784   2.426580
     8  C    3.559765   2.494778   1.420987   2.457060   2.836836
     9  C    3.756807   2.987888   2.519402   3.787543   4.253292
    10  C    5.132173   4.386889   3.788176   4.913389   5.077532
    11  C    6.105805   5.194291   4.254933   5.076676   4.851364
    12  C    5.995419   4.935127   3.717835   4.194030   3.686695
    13  N    6.883279   5.933060   4.865174   3.522646   2.593896
    14  C    5.906704   4.896054   3.748324   2.460057   1.434056
    15  H    3.430214   2.643683   2.168403   1.090687   2.155896
    16  H    6.483624   5.324891   3.887568   3.400814   2.154697
    17  H    3.165660   2.708661   2.804621   4.199698   4.941197
    18  H    5.615231   5.045325   4.676504   5.892103   6.143848
    19  H    7.144366   6.263463   5.340522   6.127007   5.799325
                    6          7          8          9         10
     6  C    0.000000
     7  C    1.397489   0.000000
     8  C    2.448110   1.416612   0.000000
     9  C    3.714856   2.420025   1.418798   0.000000
    10  C    4.194130   2.797432   2.458753   1.399796   0.000000
    11  C    3.685017   2.425951   2.835648   2.415980   1.389536
    12  C    2.401044   1.395758   2.442405   2.775134   2.400687
    13  N    3.495983   4.838612   5.430524   6.845833   7.601822
    14  C    2.445651   3.732429   4.270817   5.686652   6.467867
    15  H    3.400584   3.889466   3.443781   4.681307   5.895771
    16  H    1.090576   2.156159   3.431963   4.575750   4.804349
    17  H    4.625368   3.423091   2.189089   1.090120   2.135727
    18  H    5.281841   3.885241   3.441846   2.162003   1.087810
    19  H    4.544442   3.403585   3.921722   3.406827   2.158647
                   11         12         13         14         15
    11  C    0.000000
    12  C    1.388720   0.000000
    13  N    7.180406   5.867477   0.000000
    14  C    6.115702   4.845937   1.159880   0.000000
    15  H    6.146023   5.284625   3.512293   2.684099   0.000000
    16  H    4.005338   2.618246   3.465423   2.661361   4.299570
    17  H    3.386096   3.864499   7.517535   6.362973   4.920688
    18  H    2.148409   3.386659   8.682417   7.544073   6.828694
    19  H    1.086193   2.144018   8.005443   6.989783   7.204547
                   16         17         18         19
    16  H    0.000000
    17  H    5.558767   0.000000
    18  H    5.871342   2.451885   0.000000
    19  H    4.669952   4.285205   2.487289   0.000000
 Stoichiometry    C12H5N2(1-)
 Framework group  C1[X(C12H5N2)]
 Deg. of freedom    51
 Full point group                 C1      NOp   1
 Largest Abelian subgroup         C1      NOp   1
 Largest concise Abelian subgroup C1      NOp   1
                         Standard orientation:                         
 ---------------------------------------------------------------------
 Center     Atomic      Atomic             Coordinates (Angstroms)
 Number     Number       Type             X           Y           Z
 ---------------------------------------------------------------------
      1          7           0       -0.595348    3.768203    0.000002
      2          6           0       -0.300525    2.646471   -0.000075
      3          6           0        0.087160    1.261370   -0.000161
      4          6           0        1.462158    0.964136   -0.000262
      5          6           0        1.896913   -0.362857   -0.000283
      6          6           0        0.959651   -1.396059   -0.000465
      7          6           0       -0.409620   -1.116642   -0.000329
      8          6           0       -0.879444    0.219792   -0.000085
      9          6           0       -2.285048    0.412832    0.000289
     10          6           0       -3.171278   -0.670692    0.000444
     11          6           0       -2.680303   -1.970597    0.000089
     12          6           0       -1.308185   -2.184688   -0.000298
     13          7           0        4.425770   -0.940079    0.000715
     14          6           0        3.296588   -0.674993    0.000176
     15          1           0        2.194483    1.772404   -0.000302
     16          1           0        1.298285   -2.432728   -0.000592
     17          1           0       -2.713232    1.415339    0.000628
     18          1           0       -4.245429   -0.498849    0.000833
     19          1           0       -3.355458   -2.821467    0.000165
 ---------------------------------------------------------------------
 Rotational constants (GHZ):      1.0068013      0.6048532      0.3778521
 Standard basis: STO-3G (5D, 7F)
 There are    75 symmetry adapted cartesian basis functions of A   symmetry.
 There are    75 symmetry adapted basis functions of A   symmetry.
    75 basis functions,   225 primitive gaussians,    75 cartesian basis functions
    46 alpha electrons       46 beta electrons
       nuclear repulsion energy       708.1021869066 Hartrees.
 NAtoms=   19 NActive=   19 NUniq=   19 SFac= 1.00D+00 NAtFMM=   60 NAOKFM=F Big=F
 Integral buffers will be    131072 words long.
 Raffenetti 2 integral format.
 Two-electron integral symmetry is turned on.
 One-electron integrals computed using PRISM.
 NBasis=    75 RedAO= T EigKep=  1.55D-01  NBF=    75
 NBsUse=    75 1.00D-06 EigRej= -1.00D+00 NBFU=    75
 ExpMin= 1.69D-01 ExpMax= 9.91D+01 ExpMxC= 9.91D+01 IAcc=1 IRadAn=         1 AccDes= 0.00D+00
 Harris functional with IExCor=  402 and IRadAn=       1 diagonalized for initial guess.
 HarFok:  IExCor=  402 AccDes= 0.00D+00 IRadAn=         1 IDoV= 1 UseB2=F ITyADJ=14
 ICtDFT=  3500011 ScaDFX=  1.000000  1.000000  1.000000  1.000000
 FoFCou: FMM=F IPFlag=           0 FMFlag=      100000 FMFlg1=           0
         NFxFlg=           0 DoJE=T BraDBF=F KetDBF=T FulRan=T
         wScrn=  0.000000 ICntrl=     500 IOpCl=  0 I1Cent=   200000004 NGrid=           0
         NMat0=    1 NMatS0=      1 NMatT0=    0 NMatD0=    1 NMtDS0=    0 NMtDT0=    0
 Petite list used in FoFCou.
 Keep R1 ints in memory in canonical form, NReq=4993994.
 Requested convergence on RMS density matrix=1.00D-08 within 128 cycles.
 Requested convergence on MAX density matrix=1.00D-06.
 Requested convergence on             energy=1.00D-06.
 No special actions if energy rises.
 Integral accuracy reduced to 1.0D-05 until final iterations.
 EnCoef did     6 forward-backward iterations
 Initial convergence to 1.0D-05 achieved.  Increase integral accuracy.
 SCF Done:  E(RB3LYP) =  -562.473239445     A.U. after   28 cycles
            NFock= 28  Conv=0.23D-08     -V/T= 2.0128

 **********************************************************************

            Population analysis using the SCF density.

 **********************************************************************

 Orbital symmetries:
       Occupied  (A) (A) (A) (A) (A) (A) (A) (A) (A) (A) (A) (A)
                 (A) (A) (A) (A) (A) (A) (A) (A) (A) (A) (A) (A)
                 (A) (A) (A) (A) (A) (A) (A) (A) (A) (A) (A) (A)
                 (A) (A) (A) (A) (A) (A) (A) (A) (A) (A)
       Virtual   (A) (A) (A) (A) (A) (A) (A) (A) (A) (A) (A) (A)
                 (A) (A) (A) (A) (A) (A) (A) (A) (A) (A) (A) (A)
                 (A) (A) (A) (A) (A)
 The electronic state is 1-A.
 Alpha  occ. eigenvalues --  -13.99562 -13.99118  -9.90429  -9.90382  -9.90247
 Alpha  occ. eigenvalues --   -9.89774  -9.89418  -9.87993  -9.86322  -9.83507
 Alpha  occ. eigenvalues --   -9.82974  -9.82213  -9.78439  -9.63413  -0.74838
 Alpha  occ. eigenvalues --   -0.74339  -0.68814  -0.62353  -0.59529  -0.55407
 Alpha  occ. eigenvalues --   -0.50137  -0.46240  -0.43767  -0.40244  -0.35053
 Alpha  occ. eigenvalues --   -0.31387  -0.30845  -0.28943  -0.26100  -0.22981
 Alpha  occ. eigenvalues --   -0.22615  -0.21015  -0.19071  -0.19045  -0.16355
 Alpha  occ. eigenvalues --   -0.15822  -0.15647  -0.15435  -0.14956  -0.14166
 Alpha  occ. eigenvalues --   -0.11215  -0.10495  -0.07115  -0.03940   0.02718
 Alpha  occ. eigenvalues --    0.15831
 Alpha virt. eigenvalues --    0.16929   0.20010   0.26569   0.28004   0.28236
 Alpha virt. eigenvalues --    0.29828   0.35470   0.39603   0.44035   0.48625
 Alpha virt. eigenvalues --    0.49230   0.52398   0.55968   0.56030   0.59432
 Alpha virt. eigenvalues --    0.64111   0.65278   0.65850   0.70692   0.72666
 Alpha virt. eigenvalues --    0.74577   0.78357   0.83239   0.86522   0.87081
 Alpha virt. eigenvalues --    1.00224   1.00856   1.13899   1.14534
          Condensed to atoms (all electrons):
               1          2          3          4          5          6
     1  N    6.577983   0.686462  -0.011156  -0.000226  -0.000001   0.000000
     2  C    0.686462   4.896158   0.423042  -0.034086   0.001025   0.000000
     3  C   -0.011156   0.423042   4.773807   0.511896  -0.030174  -0.010512
     4  C   -0.000226  -0.034086   0.511896   4.820501   0.484880  -0.030660
     5  C   -0.000001   0.001025  -0.030174   0.484880   4.772746   0.493381
     6  C    0.000000   0.000000  -0.010512  -0.030660   0.493381   4.828232
     7  C   -0.000002   0.000960  -0.027683  -0.010855  -0.030338   0.488144
     8  C   -0.000032  -0.027909   0.455328  -0.029184  -0.008240  -0.036520
     9  C   -0.000072  -0.003756  -0.028805   0.000722   0.000044   0.000952
    10  C    0.000000   0.000013   0.000794  -0.000007   0.000001  -0.000029
    11  C    0.000000   0.000000   0.000046   0.000001  -0.000018   0.001503
    12  C    0.000000  -0.000009   0.001142   0.000042   0.001153  -0.044137
    13  N    0.000000   0.000000  -0.000001  -0.000098  -0.011601  -0.000200
    14  C    0.000000  -0.000008   0.000970  -0.031564   0.428897  -0.031500
    15  H    0.000052  -0.003953  -0.024529   0.389849  -0.025637   0.001429
    16  H    0.000000   0.000001   0.000028   0.001438  -0.026738   0.387923
    17  H   -0.000122   0.001152  -0.003356   0.000009  -0.000001  -0.000023
    18  H    0.000000   0.000000  -0.000012   0.000000   0.000000   0.000002
    19  H    0.000000   0.000000   0.000002   0.000000   0.000000  -0.000002
               7          8          9         10         11         12
     1  N   -0.000002  -0.000032  -0.000072   0.000000   0.000000   0.000000
     2  C    0.000960  -0.027909  -0.003756   0.000013   0.000000  -0.000009
     3  C   -0.027683   0.455328  -0.028805   0.000794   0.000046   0.001142
     4  C   -0.010855  -0.029184   0.000722  -0.000007   0.000001   0.000042
     5  C   -0.030338  -0.008240   0.000044   0.000001  -0.000018   0.001153
     6  C    0.488144  -0.036520   0.000952  -0.000029   0.001503  -0.044137
     7  C    4.834605   0.439964  -0.034083  -0.012420  -0.029158   0.449624
     8  C    0.439964   4.814839   0.495271  -0.025216  -0.011667  -0.030449
     9  C   -0.034083   0.495271   4.870471   0.510534  -0.033295  -0.013725
    10  C   -0.012420  -0.025216   0.510534   4.847890   0.484765  -0.029398
    11  C   -0.029158  -0.011667  -0.033295   0.484765   4.888938   0.486271
    12  C    0.449624  -0.030449  -0.013725  -0.029398   0.486271   5.451042
    13  N   -0.000001   0.000000   0.000000   0.000000   0.000000   0.000000
    14  C    0.001019   0.000000   0.000000   0.000000   0.000000  -0.000009
    15  H    0.000047   0.001275  -0.000017   0.000000   0.000000   0.000001
    16  H   -0.023980   0.001547  -0.000018   0.000001   0.000045  -0.002116
    17  H    0.001343  -0.025416   0.388741  -0.028187   0.001488   0.000051
    18  H    0.000099   0.001343  -0.027217   0.380328  -0.026323   0.001789
    19  H    0.002134  -0.000048   0.001418  -0.034359   0.387059  -0.036467
              13         14         15         16         17         18
     1  N    0.000000   0.000000   0.000052   0.000000  -0.000122   0.000000
     2  C    0.000000  -0.000008  -0.003953   0.000001   0.001152   0.000000
     3  C   -0.000001   0.000970  -0.024529   0.000028  -0.003356  -0.000012
     4  C   -0.000098  -0.031564   0.389849   0.001438   0.000009   0.000000
     5  C   -0.011601   0.428897  -0.025637  -0.026738  -0.000001   0.000000
     6  C   -0.000200  -0.031500   0.001429   0.387923  -0.000023   0.000002
     7  C   -0.000001   0.001019   0.000047  -0.023980   0.001343   0.000099
     8  C    0.000000   0.000000   0.001275   0.001547  -0.025416   0.001343
     9  C    0.000000   0.000000  -0.000017  -0.000018   0.388741  -0.027217
    10  C    0.000000   0.000000   0.000000   0.000001  -0.028187   0.380328
    11  C    0.000000   0.000000   0.000000   0.000045   0.001488  -0.026323
    12  C    0.000000  -0.000009   0.000001  -0.002116   0.000051   0.001789
    13  N    6.576572   0.688020   0.000069   0.000058   0.000000   0.000000
    14  C    0.688020   4.893141  -0.003791  -0.003830   0.000000   0.000000
    15  H    0.000069  -0.003791   0.592624  -0.000039  -0.000001   0.000000
    16  H    0.000058  -0.003830  -0.000039   0.580533   0.000000   0.000000
    17  H    0.000000   0.000000  -0.000001   0.000000   0.625268  -0.004183
    18  H    0.000000   0.000000   0.000000   0.000000  -0.004183   0.640089
    19  H    0.000000   0.000000   0.000000  -0.000006  -0.000042  -0.002839
              19
     1  N    0.000000
     2  C    0.000000
     3  C    0.000002
     4  C    0.000000
     5  C    0.000000
     6  C   -0.000002
     7  C    0.002134
     8  C   -0.000048
     9  C    0.001418
    10  C   -0.034359
    11  C    0.387059
    12  C   -0.036467
    13  N    0.000000
    14  C    0.000000
    15  H    0.000000
    16  H   -0.000006
    17  H   -0.000042
    18  H   -0.002839
    19  H    0.663497
 Mulliken charges:
               1
     1  N   -0.252888
     2  C    0.060907
     3  C   -0.030826
     4  C   -0.072658
     5  C   -0.049380
     6  C   -0.047983
     7  C   -0.049418
     8  C   -0.014886
     9  C   -0.127166
    10  C   -0.094709
    11  C   -0.149655
    12  C   -0.234805
    13  N   -0.252818
    14  C    0.058655
    15  H    0.072621
    16  H    0.085152
    17  H    0.043279
    18  H    0.036925
    19  H    0.019654
 Sum of Mulliken charges =  -1.00000
 Mulliken charges with hydrogens summed into heavy atoms:
               1
     1  N   -0.252888
     2  C    0.060907
     3  C   -0.030826
     4  C   -0.000036
     5  C   -0.049380
     6  C    0.037169
     7  C   -0.049418
     8  C   -0.014886
     9  C   -0.083888
    10  C   -0.057785
    11  C   -0.130002
    12  C   -0.234805
    13  N   -0.252818
    14  C    0.058655
 Electronic spatial extent (au):  <R**2>=           2713.8809
 Charge=             -1.0000 electrons
 Dipole moment (field-independent basis, Debye):
    X=              0.3962    Y=              2.1441    Z=             -0.0006  Tot=              2.1804
 Quadrupole moment (field-independent basis, Debye-Ang):
   XX=           -107.5645   YY=           -107.5493   ZZ=            -73.8106
   XY=              1.1745   XZ=             -0.0063   YZ=             -0.0006
 Traceless Quadrupole moment (field-independent basis, Debye-Ang):
   XX=            -11.2564   YY=            -11.2412   ZZ=             22.4976
   XY=              1.1745   XZ=             -0.0063   YZ=             -0.0006
 Octapole moment (field-independent basis, Debye-Ang**2):
  XXX=           -105.2448  YYY=            -37.7935  ZZZ=              0.0016  XYY=             36.0619
  XXY=             43.4727  XXZ=             -0.0234  XZZ=              4.5106  YZZ=              2.6434
  YYZ=              0.0035  XYZ=              0.0078
 Hexadecapole moment (field-independent basis, Debye-Ang**3):
 XXXX=          -2804.5358 YYYY=          -1750.3145 ZZZZ=            -57.9714 XXXY=            108.4950
 XXXZ=             -0.1363 YYYX=             -1.8756 YYYZ=             -0.0174 ZZZX=              0.0096
 ZZZY=             -0.0016 XXYY=           -619.1421 XXZZ=           -367.4809 YYZZ=           -221.7184
 XXYZ=              0.0261 YYXZ=             -0.0132 ZZXY=             -6.5700
 N-N= 7.081021869066D+02 E-N=-2.738330105633D+03  KE= 5.553711039324D+02
 Calling FoFJK, ICntrl=      2127 FMM=F ISym2X=0 I1Cent= 0 IOpClX= 0 NMat=1 NMatS=1 NMatT=0.
 ***** Axes restored to original set *****
 -------------------------------------------------------------------
 Center     Atomic                   Forces (Hartrees/Bohr)
 Number     Number              X              Y              Z
 -------------------------------------------------------------------
      1        7          -0.106783392    0.002268477   -0.000017786
      2        6           0.085969499   -0.001152569    0.000013106
      3        6          -0.004420955    0.029417264   -0.000003091
      4        6          -0.032310089   -0.008156032   -0.000004927
      5        6           0.018636863    0.005491715    0.000001911
      6        6           0.005202299    0.014080859    0.000018504
      7        6           0.000579898   -0.020512380   -0.000012466
      8        6          -0.029788453   -0.015474908   -0.000004246
      9        6          -0.015051446   -0.005086360    0.000006951
     10        6          -0.010903436   -0.005461063    0.000002955
     11        6          -0.006273444    0.021639822   -0.000001889
     12        6           0.098858884   -0.020931975    0.000001232
     13        7           0.052220365    0.091105642    0.000080520
     14        6          -0.043216898   -0.070321717   -0.000078060
     15        1          -0.003835203    0.004384573    0.000004666
     16        1           0.007095498   -0.002320221    0.000002812
     17        1          -0.006130657    0.005340012   -0.000004712
     18        1          -0.012582868   -0.008517050    0.000003486
     19        1           0.002733533   -0.015794090   -0.000008968
 -------------------------------------------------------------------
 Cartesian Forces:  Max     0.106783392 RMS     0.030363199

 GradGradGradGradGradGradGradGradGradGradGradGradGradGradGradGradGradGrad
 Berny optimization.
 FormGI is forming the generalized inverse of G from B-inverse, IUseBI=4.
 Internal  Forces:  Max     0.106801301 RMS     0.021812165
 Search for a local minimum.
 Step number   1 out of a maximum of  102
 All quantities printed in internal units (Hartrees-Bohrs-Radians)
 Mixed Optimization -- RFO/linear search
 Second derivative matrix not updated -- first step.
 ITU=  0
     Eigenvalues ---    0.01582   0.01582   0.01866   0.01877   0.01909
     Eigenvalues ---    0.01949   0.01985   0.02040   0.02065   0.02089
     Eigenvalues ---    0.02131   0.02136   0.02146   0.02155   0.02201
     Eigenvalues ---    0.02231   0.04868   0.04868   0.16000   0.16000
     Eigenvalues ---    0.16000   0.16000   0.16000   0.22083   0.23366
     Eigenvalues ---    0.23490   0.23537   0.24913   0.25000   0.25000
     Eigenvalues ---    0.25000   0.34733   0.34746   0.34799   0.35067
     Eigenvalues ---    0.35256   0.38282   0.39815   0.40366   0.40412
     Eigenvalues ---    0.41073   0.42966   0.43901   0.45120   0.45365
     Eigenvalues ---    0.46021   0.46087   0.46266   0.47270   1.27872
     Eigenvalues ---    1.27906
 RFO step:  Lambda=-6.63193972D-02 EMin= 1.58166109D-02
 Linear search not attempted -- first point.
 Maximum step size (   0.300) exceeded in Quadratic search.
    -- Step size scaled by   0.812
 Iteration  1 RMS(Cart)=  0.05007361 RMS(Int)=  0.00138499
 Iteration  2 RMS(Cart)=  0.00233050 RMS(Int)=  0.00033595
 Iteration  3 RMS(Cart)=  0.00000104 RMS(Int)=  0.00033594
 Iteration  4 RMS(Cart)=  0.00000000 RMS(Int)=  0.00033594
 Variable       Old X    -DE/DX   Delta X   Delta X   Delta X     New X
                                 (Linear)    (Quad)   (Total)
    R1        2.19176   0.10680   0.00000   0.06444   0.06444   2.25620
    R2        2.71806   0.02083   0.00000   0.03641   0.03641   2.75447
    R3        2.65839  -0.00190   0.00000  -0.00477  -0.00503   2.65336
    R4        2.68528   0.03617   0.00000   0.05995   0.05982   2.74509
    R5        2.63881   0.03726   0.00000   0.05554   0.05541   2.69422
    R6        2.06110   0.00574   0.00000   0.01126   0.01126   2.07236
    R7        2.63613   0.02661   0.00000   0.04071   0.04083   2.67696
    R8        2.70997   0.02253   0.00000   0.03889   0.03889   2.74886
    R9        2.64087   0.03392   0.00000   0.05397   0.05423   2.69511
   R10        2.06089   0.00703   0.00000   0.01380   0.01380   2.07469
   R11        2.67701   0.05847   0.00000   0.09959   0.09958   2.77659
   R12        2.63760   0.05838   0.00000   0.09235   0.09282   2.73042
   R13        2.68114  -0.00160   0.00000  -0.00375  -0.00440   2.67674
   R14        2.64523   0.00557   0.00000   0.00574   0.00526   2.65049
   R15        2.06003   0.00548   0.00000   0.01074   0.01074   2.07077
   R16        2.62584   0.04043   0.00000   0.05888   0.05905   2.68489
   R17        2.05566   0.01313   0.00000   0.02556   0.02556   2.08123
   R18        2.62430   0.02932   0.00000   0.04491   0.04555   2.66985
   R19        2.05261   0.01451   0.00000   0.02813   0.02813   2.08074
   R20        2.19186   0.10501   0.00000   0.06338   0.06338   2.25524
    A1        2.05660   0.00006   0.00000   0.00152   0.00175   2.05836
    A2        2.12060  -0.00073   0.00000  -0.00050  -0.00027   2.12033
    A3        2.10598   0.00068   0.00000  -0.00102  -0.00148   2.10450
    A4        2.10029   0.00377   0.00000   0.00452   0.00406   2.10435
    A5        2.09405  -0.00293   0.00000  -0.00602  -0.00578   2.08826
    A6        2.08884  -0.00084   0.00000   0.00149   0.00173   2.09057
    A7        2.08824   0.00092   0.00000  -0.00032  -0.00038   2.08786
    A8        2.10682  -0.00362   0.00000  -0.00794  -0.00791   2.09891
    A9        2.08813   0.00270   0.00000   0.00826   0.00829   2.09642
   A10        2.10625   0.00905   0.00000   0.02900   0.02934   2.13558
   A11        2.08911  -0.00195   0.00000  -0.00528  -0.00545   2.08367
   A12        2.08783  -0.00709   0.00000  -0.02372  -0.02389   2.06393
   A13        2.11015  -0.02303   0.00000  -0.05690  -0.05667   2.05348
   A14        2.06893   0.00078   0.00000  -0.00465  -0.00496   2.06396
   A15        2.10411   0.02225   0.00000   0.06155   0.06164   2.16574
   A16        2.05546   0.00861   0.00000   0.02472   0.02514   2.08060
   A17        2.18240  -0.01083   0.00000  -0.02978  -0.02928   2.15311
   A18        2.04533   0.00222   0.00000   0.00507   0.00414   2.04947
   A19        2.11988  -0.00730   0.00000  -0.02873  -0.02999   2.08989
   A20        2.11094  -0.00252   0.00000  -0.00779  -0.00715   2.10378
   A21        2.05236   0.00983   0.00000   0.03651   0.03715   2.08951
   A22        2.09489   0.01031   0.00000   0.01945   0.01904   2.11393
   A23        2.09773  -0.01300   0.00000  -0.03787  -0.03767   2.06006
   A24        2.09057   0.00269   0.00000   0.01842   0.01862   2.10919
   A25        2.08671   0.02688   0.00000   0.07360   0.07437   2.16108
   A26        2.10970  -0.02042   0.00000  -0.06183  -0.06221   2.04749
   A27        2.08677  -0.00646   0.00000  -0.01178  -0.01216   2.07461
   A28        2.11545  -0.05435   0.00000  -0.13095  -0.12919   1.98625
   A29        3.15749  -0.00281   0.00000  -0.02777  -0.02777   3.12972
   A30        3.13042   0.00009   0.00000   0.00064   0.00064   3.13106
   A31        3.14160   0.00000   0.00000  -0.00001  -0.00001   3.14160
   A32        3.14177  -0.00001   0.00000  -0.00005  -0.00005   3.14173
    D1        3.14154   0.00000   0.00000   0.00002   0.00002   3.14155
    D2       -0.00003   0.00000   0.00000   0.00000   0.00000  -0.00003
    D3        0.00000   0.00000   0.00000   0.00001   0.00001   0.00000
    D4       -3.14157   0.00000   0.00000  -0.00001  -0.00001  -3.14159
    D5        3.14147   0.00000   0.00000  -0.00001  -0.00001   3.14146
    D6       -0.00018   0.00000   0.00000  -0.00001  -0.00001  -0.00019
    D7       -0.00017   0.00000   0.00000   0.00000   0.00000  -0.00017
    D8        3.14136   0.00000   0.00000   0.00000   0.00000   3.14136
    D9        0.00022   0.00000   0.00000  -0.00004  -0.00004   0.00018
   D10       -3.14114  -0.00001   0.00000  -0.00010  -0.00009  -3.14123
   D11       -3.14140   0.00000   0.00000  -0.00002  -0.00002  -3.14142
   D12        0.00043  -0.00001   0.00000  -0.00008  -0.00008   0.00036
   D13       -0.00025   0.00001   0.00000   0.00006   0.00006  -0.00019
   D14        3.14148   0.00000   0.00000  -0.00001  -0.00001   3.14147
   D15        3.14111   0.00001   0.00000   0.00011   0.00011   3.14122
   D16       -0.00035   0.00001   0.00000   0.00005   0.00005  -0.00030
   D17        0.00007   0.00000   0.00000  -0.00005  -0.00005   0.00002
   D18       -3.14141  -0.00001   0.00000  -0.00008  -0.00008  -3.14149
   D19        3.14153   0.00000   0.00000   0.00002   0.00002   3.14155
   D20        0.00005   0.00000   0.00000  -0.00001  -0.00001   0.00004
   D21        0.00014   0.00000   0.00000   0.00002   0.00002   0.00016
   D22       -3.14140   0.00000   0.00000   0.00002   0.00002  -3.14138
   D23       -3.14157   0.00000   0.00000   0.00004   0.00004  -3.14153
   D24        0.00008   0.00000   0.00000   0.00004   0.00004   0.00012
   D25        3.14138   0.00000   0.00000   0.00002   0.00002   3.14140
   D26       -0.00010   0.00000   0.00000   0.00000   0.00000  -0.00010
   D27       -3.14150   0.00000   0.00000  -0.00003  -0.00003  -3.14154
   D28       -0.00008   0.00000   0.00000   0.00001   0.00001  -0.00008
   D29        0.00003   0.00000   0.00000  -0.00003  -0.00003   0.00000
   D30        3.14145   0.00000   0.00000   0.00001   0.00001   3.14146
   D31       -0.00012   0.00000   0.00000  -0.00001  -0.00001  -0.00012
   D32        3.14149   0.00000   0.00000   0.00002   0.00002   3.14150
   D33       -3.14154   0.00000   0.00000  -0.00004  -0.00004  -3.14159
   D34        0.00006   0.00000   0.00000  -0.00002  -0.00002   0.00004
   D35        0.00010   0.00001   0.00000   0.00005   0.00005   0.00015
   D36       -3.14155   0.00001   0.00000   0.00006   0.00006  -3.14149
   D37       -3.14150   0.00000   0.00000   0.00002   0.00002  -3.14148
   D38        0.00003   0.00000   0.00000   0.00003   0.00003   0.00007
   D39        0.00001   0.00000   0.00000  -0.00004  -0.00004  -0.00003
   D40       -3.14153  -0.00001   0.00000  -0.00005  -0.00005  -3.14158
         Item               Value     Threshold  Converged?
 Maximum Force            0.106801     0.000450     NO 
 RMS     Force            0.021812     0.000300     NO 
 Maximum Displacement     0.262566     0.001800     NO 
 RMS     Displacement     0.049157     0.001200     NO 
 Predicted change in Energy=-3.494911D-02
 GradGradGradGradGradGradGradGradGradGradGradGradGradGradGradGradGradGrad

                          Input orientation:                          
 ---------------------------------------------------------------------
 Center     Atomic      Atomic             Coordinates (Angstroms)
 Number     Number       Type             X           Y           Z
 ---------------------------------------------------------------------
      1          7           0        0.980622   -0.065503    0.048723
      2          6           0        2.174552   -0.066284    0.048952
      3          6           0        3.632041   -0.084547    0.049237
      4          6           0        4.305312    1.147604    0.049617
      5          6           0        5.730232    1.195307    0.049956
      6          6           0        6.471297   -0.011980    0.049688
      7          6           0        5.843921   -1.292766    0.049313
      8          6           0        4.375158   -1.332723    0.049182
      9          6           0        3.757160   -2.607267    0.049077
     10          6           0        4.549376   -3.764690    0.049097
     11          6           0        5.967843   -3.683620    0.049070
     12          6           0        6.685964   -2.466914    0.049195
     13          7           0        6.998347    3.519931    0.051628
     14          6           0        6.420778    2.475582    0.050803
     15          1           0        3.729084    2.080660    0.049658
     16          1           0        7.568396    0.029347    0.049834
     17          1           0        2.664992   -2.696487    0.049104
     18          1           0        4.039527   -4.740907    0.049100
     19          1           0        6.528066   -4.631524    0.048987
 ---------------------------------------------------------------------
                    Distance matrix (angstroms):
                    1          2          3          4          5
     1  N    0.000000
     2  C    1.193931   0.000000
     3  C    2.651488   1.457604   0.000000
     4  C    3.539095   2.452277   1.404098   0.000000
     5  C    4.914106   3.772860   2.457729   1.425719   0.000000
     6  C    5.490936   4.297088   2.840183   2.456853   1.416587
     7  C    5.015761   3.868918   2.520358   2.884914   2.490669
     8  C    3.623358   2.539002   1.452641   2.481310   2.868303
     9  C    3.764270   2.993533   2.525821   3.794671   4.283991
    10  C    5.140039   4.395224   3.792751   4.918354   5.098627
    11  C    6.161424   5.241581   4.290605   5.109279   4.884709
    12  C    6.190130   5.110368   3.873257   4.328077   3.784876
    13  N    7.004881   6.010819   4.931965   3.588924   2.648017
    14  C    6.004366   4.948890   3.785672   2.497743   1.454634
    15  H    3.487128   2.650649   2.167381   1.096646   2.188252
    16  H    6.588457   5.394691   3.938002   3.449379   2.176766
    17  H    3.123969   2.675537   2.785214   4.179436   4.953964
    18  H    5.587156   5.032915   4.674156   5.894507   6.172287
    19  H    7.184893   6.308288   5.390914   6.191846   5.881199
                    6          7          8          9         10
     6  C    0.000000
     7  C    1.426188   0.000000
     8  C    2.477531   1.469306   0.000000
     9  C    3.755270   2.466269   1.416469   0.000000
    10  C    4.216232   2.790386   2.438200   1.402582   0.000000
    11  C    3.705996   2.394063   2.839606   2.458791   1.420781
    12  C    2.464302   1.444874   2.574143   2.932165   2.499846
    13  N    3.571019   4.949217   5.516282   6.931655   7.685256
    14  C    2.488076   3.812246   4.322933   5.738486   6.514841
    15  H    3.449475   3.981525   3.473989   4.688011   5.902627
    16  H    1.097877   2.172969   3.471599   4.634355   4.848628
    17  H    4.657739   3.475057   2.187355   1.095806   2.166093
    18  H    5.317543   3.891724   3.424671   2.152244   1.101338
    19  H    4.619892   3.408131   3.939175   3.431550   2.160235
                   11         12         13         14         15
    11  C    0.000000
    12  C    1.412823   0.000000
    13  N    7.276887   5.994990   0.000000
    14  C    6.175834   4.949606   1.193420   0.000000
    15  H    6.183766   5.424350   3.572056   2.720511   0.000000
    16  H    4.043252   2.647642   3.536825   2.702054   4.352954
    17  H    3.447209   4.027520   7.577718   6.391888   4.894224
    18  H    2.199150   3.489222   8.774740   7.599216   6.828628
    19  H    1.101078   2.170361   8.165009   7.107916   7.272394
                   16         17         18         19
    16  H    0.000000
    17  H    5.610128   0.000000
    18  H    5.933653   2.463534   0.000000
    19  H    4.775563   4.320614   2.490942   0.000000
 Stoichiometry    C12H5N2(1-)
 Framework group  C1[X(C12H5N2)]
 Deg. of freedom    51
 Full point group                 C1      NOp   1
 Largest Abelian subgroup         C1      NOp   1
 Largest concise Abelian subgroup C1      NOp   1
                         Standard orientation:                         
 ---------------------------------------------------------------------
 Center     Atomic      Atomic             Coordinates (Angstroms)
 Number     Number       Type             X           Y           Z
 ---------------------------------------------------------------------
      1          7           0       -0.661499    3.824836   -0.000044
      2          6           0       -0.317823    2.681438   -0.000090
      3          6           0        0.085146    1.280644   -0.000138
      4          6           0        1.459139    0.991448   -0.000215
      5          6           0        1.915874   -0.359132   -0.000218
      6          6           0        0.973695   -1.416969   -0.000361
      7          6           0       -0.433625   -1.185746   -0.000275
      8          6           0       -0.895590    0.209047   -0.000057
      9          6           0       -2.294228    0.433092    0.000293
     10          6           0       -3.173907   -0.659337    0.000415
     11          6           0       -2.687085   -1.994111    0.000040
     12          6           0       -1.314943   -2.330708   -0.000300
     13          7           0        4.507494   -0.902729    0.000590
     14          6           0        3.340928   -0.650987    0.000155
     15          1           0        2.186297    1.812346   -0.000270
     16          1           0        1.329756   -2.455504   -0.000478
     17          1           0       -2.694723    1.453089    0.000595
     18          1           0       -4.255703   -0.452782    0.000775
     19          1           0       -3.433077   -2.803969    0.000061
 ---------------------------------------------------------------------
 Rotational constants (GHZ):      0.9683074      0.5916628      0.3672580
 Standard basis: STO-3G (5D, 7F)
 There are    75 symmetry adapted cartesian basis functions of A   symmetry.
 There are    75 symmetry adapted basis functions of A   symmetry.
    75 basis functions,   225 primitive gaussians,    75 cartesian basis functions
    46 alpha electrons       46 beta electrons
       nuclear repulsion energy       696.9488584086 Hartrees.
 NAtoms=   19 NActive=   19 NUniq=   19 SFac= 1.00D+00 NAtFMM=   60 NAOKFM=F Big=F
 Integral buffers will be    131072 words long.
 Raffenetti 2 integral format.
 Two-electron integral symmetry is turned on.
 One-electron integrals computed using PRISM.
 NBasis=    75 RedAO= T EigKep=  1.72D-01  NBF=    75
 NBsUse=    75 1.00D-06 EigRej= -1.00D+00 NBFU=    75
 Initial guess from the checkpoint file:  "/tmp/bnp.472668.sequoia/Gau-8277.chk"
 B after Tr=     0.000000    0.000000    0.000000
         Rot=    0.999994    0.000003   -0.000001   -0.003479 Ang=   0.40 deg.
 ExpMin= 1.69D-01 ExpMax= 9.91D+01 ExpMxC= 9.91D+01 IAcc=1 IRadAn=         1 AccDes= 0.00D+00
 Harris functional with IExCor=  402 and IRadAn=       1 diagonalized for initial guess.
 HarFok:  IExCor=  402 AccDes= 0.00D+00 IRadAn=         1 IDoV= 1 UseB2=F ITyADJ=14
 ICtDFT=  3500011 ScaDFX=  1.000000  1.000000  1.000000  1.000000
 FoFCou: FMM=F IPFlag=           0 FMFlag=      100000 FMFlg1=           0
         NFxFlg=           0 DoJE=T BraDBF=F KetDBF=T FulRan=T
         wScrn=  0.000000 ICntrl=     500 IOpCl=  0 I1Cent=   200000004 NGrid=           0
         NMat0=    1 NMatS0=      1 NMatT0=    0 NMatD0=    1 NMtDS0=    0 NMtDT0=    0
 Petite list used in FoFCou.
 Keep R1 ints in memory in canonical form, NReq=4993994.
 Requested convergence on RMS density matrix=1.00D-08 within 128 cycles.
 Requested convergence on MAX density matrix=1.00D-06.
 Requested convergence on             energy=1.00D-06.
 No special actions if energy rises.
 Integral accuracy reduced to 1.0D-05 until final iterations.
 Initial convergence to 1.0D-05 achieved.  Increase integral accuracy.
 SCF Done:  E(RB3LYP) =  -562.506125140     A.U. after   20 cycles
            NFock= 20  Conv=0.61D-08     -V/T= 2.0138
 Calling FoFJK, ICntrl=      2127 FMM=F ISym2X=0 I1Cent= 0 IOpClX= 0 NMat=1 NMatS=1 NMatT=0.
 ***** Axes restored to original set *****
 -------------------------------------------------------------------
 Center     Atomic                   Forces (Hartrees/Bohr)
 Number     Number              X              Y              Z
 -------------------------------------------------------------------
      1        7          -0.015370660    0.000350634   -0.000003174
      2        6           0.011298307   -0.002355231    0.000001949
      3        6           0.002532778    0.010373355   -0.000001383
      4        6          -0.008235336   -0.003259391   -0.000001200
      5        6           0.008475757   -0.002253325    0.000002664
      6        6          -0.006879262    0.005268712    0.000005746
      7        6          -0.011729909   -0.001235377   -0.000003780
      8        6          -0.002908692   -0.000490106   -0.000000214
      9        6          -0.005099834   -0.004036811    0.000006230
     10        6           0.003159649   -0.004145641   -0.000003089
     11        6          -0.014739040    0.006089364    0.000001250
     12        6           0.040904815   -0.005781482   -0.000000505
     13        7           0.007425230    0.013928389    0.000008165
     14        6          -0.006703735   -0.010407101   -0.000014858
     15        1          -0.000141566    0.001368411    0.000004286
     16        1           0.002065959   -0.000578983    0.000003394
     17        1          -0.000990424    0.002397729   -0.000003581
     18        1          -0.001448488   -0.001109445    0.000000559
     19        1          -0.001615548   -0.004123701   -0.000002458
 -------------------------------------------------------------------
 Cartesian Forces:  Max     0.040904815 RMS     0.007644327

 GradGradGradGradGradGradGradGradGradGradGradGradGradGradGradGradGradGrad
 Berny optimization.
 Using GEDIIS/GDIIS optimizer.
 FormGI is forming the generalized inverse of G from B-inverse, IUseBI=4.
 Internal  Forces:  Max     0.021890880 RMS     0.005037257
 Search for a local minimum.
 Step number   2 out of a maximum of  102
 All quantities printed in internal units (Hartrees-Bohrs-Radians)
 Mixed Optimization -- RFO/linear search
 Update second derivatives using D2CorX and points    1    2
 DE= -3.29D-02 DEPred=-3.49D-02 R= 9.41D-01
 TightC=F SS=  1.41D+00  RLast= 3.00D-01 DXNew= 5.0454D-01 8.9985D-01
 Trust test= 9.41D-01 RLast= 3.00D-01 DXMaxT set to 5.05D-01
 ITU=  1  0
 Use linear search instead of GDIIS.
     Eigenvalues ---    0.01582   0.01588   0.01867   0.01876   0.01909
     Eigenvalues ---    0.01951   0.01987   0.02042   0.02065   0.02084
     Eigenvalues ---    0.02131   0.02137   0.02147   0.02157   0.02204
     Eigenvalues ---    0.02231   0.04868   0.04868   0.15930   0.16000
     Eigenvalues ---    0.16000   0.16000   0.16117   0.21870   0.22531
     Eigenvalues ---    0.23495   0.23510   0.24639   0.24993   0.25000
     Eigenvalues ---    0.25223   0.34737   0.34743   0.34807   0.35114
     Eigenvalues ---    0.35320   0.38481   0.39868   0.40463   0.40552
     Eigenvalues ---    0.40976   0.43001   0.43298   0.45134   0.45310
     Eigenvalues ---    0.45807   0.46258   0.46793   0.50960   1.27884
     Eigenvalues ---    1.33111
 RFO step:  Lambda=-3.17852032D-03 EMin= 1.58166109D-02
 Quartic linear search produced a step of  0.36062.
 Iteration  1 RMS(Cart)=  0.02508099 RMS(Int)=  0.00079811
 Iteration  2 RMS(Cart)=  0.00132105 RMS(Int)=  0.00029671
 Iteration  3 RMS(Cart)=  0.00000049 RMS(Int)=  0.00029671
 Variable       Old X    -DE/DX   Delta X   Delta X   Delta X     New X
                                 (Linear)    (Quad)   (Total)
    R1        2.25620   0.01537   0.02324  -0.00993   0.01331   2.26951
    R2        2.75447   0.00405   0.01313  -0.00173   0.01140   2.76587
    R3        2.65336  -0.00310  -0.00181  -0.00757  -0.00954   2.64382
    R4        2.74509   0.00686   0.02157  -0.00288   0.01860   2.76369
    R5        2.69422   0.00640   0.01998  -0.00539   0.01452   2.70874
    R6        2.07236   0.00124   0.00406  -0.00001   0.00405   2.07641
    R7        2.67696   0.00012   0.01473  -0.01730  -0.00249   2.67447
    R8        2.74886   0.00344   0.01402  -0.00500   0.00902   2.75788
    R9        2.69511   0.00497   0.01956  -0.00800   0.01172   2.70682
   R10        2.07469   0.00204   0.00498   0.00201   0.00699   2.08167
   R11        2.77659   0.00840   0.03591  -0.01313   0.02271   2.79929
   R12        2.73042   0.02189   0.03347   0.02688   0.06075   2.79116
   R13        2.67674   0.00074  -0.00159   0.00359   0.00141   2.67815
   R14        2.65049   0.00070   0.00190  -0.00230  -0.00082   2.64968
   R15        2.07077   0.00079   0.00387  -0.00154   0.00233   2.07311
   R16        2.68489   0.00263   0.02129  -0.01886   0.00259   2.68748
   R17        2.08123   0.00165   0.00922  -0.00458   0.00463   2.08586
   R18        2.66985   0.01387   0.01643   0.02076   0.03775   2.70760
   R19        2.08074   0.00273   0.01014  -0.00160   0.00855   2.08928
   R20        2.25524   0.01578   0.02286  -0.00906   0.01379   2.26903
    A1        2.05836   0.00183   0.00063   0.00870   0.00949   2.06785
    A2        2.12033  -0.00310  -0.00010  -0.01691  -0.01685   2.10347
    A3        2.10450   0.00127  -0.00053   0.00821   0.00736   2.11186
    A4        2.10435  -0.00093   0.00146  -0.00927  -0.00809   2.09626
    A5        2.08826   0.00108  -0.00209   0.01149   0.00955   2.09781
    A6        2.09057  -0.00015   0.00062  -0.00222  -0.00146   2.08911
    A7        2.08786  -0.00028  -0.00014  -0.00347  -0.00364   2.08422
    A8        2.09891  -0.00159  -0.00285  -0.00398  -0.00681   2.09210
    A9        2.09642   0.00186   0.00299   0.00745   0.01045   2.10687
   A10        2.13558   0.00494   0.01058   0.01664   0.02741   2.16300
   A11        2.08367  -0.00179  -0.00196  -0.00693  -0.00899   2.07468
   A12        2.06393  -0.00315  -0.00862  -0.00970  -0.01842   2.04551
   A13        2.05348  -0.00670  -0.02044  -0.01215  -0.03251   2.02097
   A14        2.06396  -0.00208  -0.00179  -0.01286  -0.01486   2.04911
   A15        2.16574   0.00878   0.02223   0.02501   0.04737   2.21311
   A16        2.08060   0.00171   0.00907   0.00004   0.00946   2.09007
   A17        2.15311  -0.00265  -0.01056  -0.00336  -0.01344   2.13968
   A18        2.04947   0.00095   0.00149   0.00332   0.00397   2.05344
   A19        2.08989  -0.00289  -0.01082  -0.01048  -0.02247   2.06743
   A20        2.10378  -0.00111  -0.00258  -0.00583  -0.00783   2.09595
   A21        2.08951   0.00400   0.01340   0.01631   0.03029   2.11980
   A22        2.11393   0.00248   0.00687  -0.00204   0.00443   2.11836
   A23        2.06006  -0.00203  -0.01358   0.00737  -0.00602   2.05404
   A24        2.10919  -0.00044   0.00672  -0.00532   0.00159   2.11078
   A25        2.16108   0.01201   0.02682   0.03657   0.06405   2.22513
   A26        2.04749  -0.00963  -0.02243  -0.03694  -0.05971   1.98778
   A27        2.07461  -0.00238  -0.00439   0.00037  -0.00434   2.07027
   A28        1.98625  -0.02133  -0.04659  -0.05238  -0.09735   1.88890
   A29        3.12972   0.00075  -0.01002   0.07985   0.06984   3.19955
   A30        3.13106   0.00057   0.00023   0.01444   0.01467   3.14573
   A31        3.14160   0.00000   0.00000  -0.00003  -0.00003   3.14156
   A32        3.14173   0.00000  -0.00002  -0.00010  -0.00012   3.14161
    D1        3.14155   0.00000   0.00001   0.00007   0.00008  -3.14155
    D2       -0.00003   0.00000   0.00000   0.00002   0.00002  -0.00002
    D3        0.00000   0.00000   0.00000   0.00003   0.00003   0.00003
    D4       -3.14159   0.00000   0.00000  -0.00003  -0.00003   3.14157
    D5        3.14146   0.00000   0.00000   0.00002   0.00001   3.14148
    D6       -0.00019   0.00000   0.00000   0.00006   0.00005  -0.00013
    D7       -0.00017   0.00000   0.00000   0.00006   0.00006  -0.00011
    D8        3.14136   0.00000   0.00000   0.00010   0.00011   3.14147
    D9        0.00018   0.00000  -0.00001  -0.00014  -0.00016   0.00002
   D10       -3.14123  -0.00001  -0.00003  -0.00032  -0.00035  -3.14158
   D11       -3.14142   0.00000  -0.00001  -0.00009  -0.00009  -3.14151
   D12        0.00036  -0.00001  -0.00003  -0.00027  -0.00029   0.00007
   D13       -0.00019   0.00000   0.00002   0.00016   0.00019   0.00000
   D14        3.14147   0.00000   0.00000   0.00005   0.00005   3.14152
   D15        3.14122   0.00001   0.00004   0.00034   0.00038  -3.14158
   D16       -0.00030   0.00000   0.00002   0.00023   0.00025  -0.00005
   D17        0.00002   0.00000  -0.00002  -0.00007  -0.00009  -0.00007
   D18       -3.14149   0.00000  -0.00003  -0.00015  -0.00018   3.14152
   D19        3.14155   0.00000   0.00001   0.00004   0.00004   3.14159
   D20        0.00004   0.00000   0.00000  -0.00004  -0.00005  -0.00001
   D21        0.00016   0.00000   0.00001  -0.00004  -0.00004   0.00012
   D22       -3.14138   0.00000   0.00001  -0.00008  -0.00008  -3.14146
   D23       -3.14153   0.00000   0.00002   0.00004   0.00006  -3.14147
   D24        0.00012   0.00000   0.00001   0.00000   0.00002   0.00014
   D25        3.14140   0.00000   0.00001   0.00011   0.00012   3.14152
   D26       -0.00010   0.00000   0.00000   0.00003   0.00003  -0.00008
   D27       -3.14154   0.00000  -0.00001  -0.00009  -0.00010   3.14154
   D28       -0.00008   0.00000   0.00000   0.00006   0.00006  -0.00002
   D29        0.00000   0.00000  -0.00001  -0.00005  -0.00006  -0.00007
   D30        3.14146   0.00000   0.00000   0.00010   0.00010   3.14156
   D31       -0.00012   0.00000   0.00000   0.00007   0.00007  -0.00005
   D32        3.14150   0.00000   0.00001   0.00006   0.00007   3.14158
   D33       -3.14159   0.00000  -0.00002  -0.00007  -0.00009   3.14151
   D34        0.00004   0.00000  -0.00001  -0.00008  -0.00009  -0.00005
   D35        0.00015   0.00000   0.00002  -0.00004  -0.00002   0.00012
   D36       -3.14149   0.00000   0.00002   0.00001   0.00003  -3.14146
   D37       -3.14148   0.00000   0.00001  -0.00003  -0.00002  -3.14150
   D38        0.00007   0.00000   0.00001   0.00002   0.00003   0.00010
   D39       -0.00003   0.00000  -0.00001  -0.00001  -0.00002  -0.00006
   D40       -3.14158   0.00000  -0.00002  -0.00006  -0.00008   3.14152
         Item               Value     Threshold  Converged?
 Maximum Force            0.021891     0.000450     NO 
 RMS     Force            0.005037     0.000300     NO 
 Maximum Displacement     0.160742     0.001800     NO 
 RMS     Displacement     0.024829     0.001200     NO 
 Predicted change in Energy=-3.480980D-03
 GradGradGradGradGradGradGradGradGradGradGradGradGradGradGradGradGradGrad

                          Input orientation:                          
 ---------------------------------------------------------------------
 Center     Atomic      Atomic             Coordinates (Angstroms)
 Number     Number       Type             X           Y           Z
 ---------------------------------------------------------------------
      1          7           0        0.973172   -0.028383    0.048688
      2          6           0        2.172420   -0.092716    0.049018
      3          6           0        3.636043   -0.086326    0.049388
      4          6           0        4.297783    1.146331    0.049791
      5          6           0        5.730418    1.193313    0.050108
      6          6           0        6.465574   -0.016041    0.049981
      7          6           0        5.865336   -1.316600    0.049551
      8          6           0        4.384247   -1.342928    0.049322
      9          6           0        3.748897   -2.609749    0.049065
     10          6           0        4.551331   -3.759583    0.048961
     11          6           0        5.970775   -3.671846    0.049044
     12          6           0        6.771025   -2.483352    0.049376
     13          7           0        6.974466    3.544610    0.050908
     14          6           0        6.415343    2.482015    0.050539
     15          1           0        3.722433    2.082445    0.049811
     16          1           0        7.566162    0.030566    0.050162
     17          1           0        2.653849   -2.675846    0.048921
     18          1           0        4.043333   -4.739528    0.048777
     19          1           0        6.480063   -4.653161    0.048808
 ---------------------------------------------------------------------
                    Distance matrix (angstroms):
                    1          2          3          4          5
     1  N    0.000000
     2  C    1.200972   0.000000
     3  C    2.663501   1.463636   0.000000
     4  C    3.526045   2.460164   1.399051   0.000000
     5  C    4.911611   3.783281   2.454360   1.433404   0.000000
     6  C    5.492415   4.293838   2.830404   2.459761   1.415271
     7  C    5.058929   3.890439   2.546237   2.919460   2.513537
     8  C    3.655606   2.540710   1.462484   2.490760   2.871358
     9  C    3.790528   2.969972   2.525945   3.795973   4.288322
    10  C    5.169630   4.370941   3.785574   4.912462   5.091309
    11  C    6.184728   5.218972   4.278660   5.100365   4.871093
    12  C    6.296187   5.182886   3.946372   4.392212   3.821091
    13  N    6.984397   6.024101   4.932420   3.593936   2.660123
    14  C    5.993273   4.963027   3.784295   2.503620   1.459409
    15  H    3.466126   2.670930   2.170491   1.098789   2.196033
    16  H    6.593253   5.395150   3.931857   3.453582   2.173002
    17  H    3.135879   2.627609   2.769534   4.160716   4.943244
    18  H    5.623236   5.009309   4.670993   5.891357   6.168052
    19  H    7.191274   6.273232   5.380004   6.196487   5.894339
                    6          7          8          9         10
     6  C    0.000000
     7  C    1.432389   0.000000
     8  C    2.468309   1.481323   0.000000
     9  C    3.756015   2.480231   1.417217   0.000000
    10  C    4.204572   2.773946   2.422424   1.402148   0.000000
    11  C    3.689137   2.357605   2.817966   2.462680   1.422153
    12  C    2.486147   1.477019   2.645237   3.024769   2.560431
    13  N    3.596834   4.986134   5.531480   6.948412   7.695637
    14  C    2.498561   3.838227   4.330767   5.747695   6.513992
    15  H    3.453761   4.018151   3.488722   4.692269   5.900540
    16  H    1.101574   2.169716   3.465699   4.641419   4.842978
    17  H    4.647989   3.487290   2.184249   1.097041   2.185160
    18  H    5.308350   3.877645   3.413666   2.150035   1.103791
    19  H    4.637143   3.392718   3.917919   3.410982   2.125674
                   11         12         13         14         15
    11  C    0.000000
    12  C    1.432800   0.000000
    13  N    7.285920   6.031395   0.000000
    14  C    6.169898   4.978090   1.200719   0.000000
    15  H    6.177937   5.490029   3.565620   2.722393   0.000000
    16  H    4.031515   2.636670   3.563511   2.708133   4.357116
    17  H    3.463238   4.121673   7.573758   6.383758   4.876803
    18  H    2.203402   3.539863   8.787405   7.601126   6.829517
    19  H    1.105601   2.189230   8.212667   7.135470   7.278250
                   16         17         18         19
    16  H    0.000000
    17  H    5.608518   0.000000
    18  H    5.929935   2.487861   0.000000
    19  H    4.808005   4.306935   2.438260   0.000000
 Stoichiometry    C12H5N2(1-)
 Framework group  C1[X(C12H5N2)]
 Deg. of freedom    51
 Full point group                 C1      NOp   1
 Largest Abelian subgroup         C1      NOp   1
 Largest concise Abelian subgroup C1      NOp   1
                         Standard orientation:                         
 ---------------------------------------------------------------------
 Center     Atomic      Atomic             Coordinates (Angstroms)
 Number     Number       Type             X           Y           Z
 ---------------------------------------------------------------------
      1          7           0       -0.586423    3.852387   -0.000142
      2          6           0       -0.315139    2.682456   -0.000053
      3          6           0        0.097516    1.278196    0.000005
      4          6           0        1.465470    0.984858    0.000013
      5          6           0        1.908513   -0.378359    0.000017
      6          6           0        0.950928   -1.420484   -0.000015
      7          6           0       -0.465173   -1.205089   -0.000049
      8          6           0       -0.901833    0.210413    0.000041
      9          6           0       -2.295276    0.468909    0.000181
     10          6           0       -3.176996   -0.621315    0.000145
     11          6           0       -2.698465   -1.960541   -0.000091
     12          6           0       -1.334467   -2.399204   -0.000175
     13          7           0        4.512827   -0.920395    0.000066
     14          6           0        3.336746   -0.678404    0.000036
     15          1           0        2.204951    1.797573   -0.000039
     16          1           0        1.301387   -2.464824   -0.000078
     17          1           0       -2.662918    1.502514    0.000283
     18          1           0       -4.259479   -0.405481    0.000271
     19          1           0       -3.499717   -2.722348   -0.000232
 ---------------------------------------------------------------------
 Rotational constants (GHZ):      0.9567670      0.5910865      0.3653654
 Standard basis: STO-3G (5D, 7F)
 There are    75 symmetry adapted cartesian basis functions of A   symmetry.
 There are    75 symmetry adapted basis functions of A   symmetry.
    75 basis functions,   225 primitive gaussians,    75 cartesian basis functions
    46 alpha electrons       46 beta electrons
       nuclear repulsion energy       694.4918318892 Hartrees.
 NAtoms=   19 NActive=   19 NUniq=   19 SFac= 1.00D+00 NAtFMM=   60 NAOKFM=F Big=F
 Integral buffers will be    131072 words long.
 Raffenetti 2 integral format.
 Two-electron integral symmetry is turned on.
 One-electron integrals computed using PRISM.
 NBasis=    75 RedAO= T EigKep=  1.76D-01  NBF=    75
 NBsUse=    75 1.00D-06 EigRej= -1.00D+00 NBFU=    75
 Initial guess from the checkpoint file:  "/tmp/bnp.472668.sequoia/Gau-8277.chk"
 B after Tr=     0.000000    0.000000    0.000000
         Rot=    0.999989    0.000001    0.000000    0.004661 Ang=   0.53 deg.
 ExpMin= 1.69D-01 ExpMax= 9.91D+01 ExpMxC= 9.91D+01 IAcc=1 IRadAn=         1 AccDes= 0.00D+00
 Harris functional with IExCor=  402 and IRadAn=       1 diagonalized for initial guess.
 HarFok:  IExCor=  402 AccDes= 0.00D+00 IRadAn=         1 IDoV= 1 UseB2=F ITyADJ=14
 ICtDFT=  3500011 ScaDFX=  1.000000  1.000000  1.000000  1.000000
 FoFCou: FMM=F IPFlag=           0 FMFlag=      100000 FMFlg1=           0
         NFxFlg=           0 DoJE=T BraDBF=F KetDBF=T FulRan=T
         wScrn=  0.000000 ICntrl=     500 IOpCl=  0 I1Cent=   200000004 NGrid=           0
         NMat0=    1 NMatS0=      1 NMatT0=    0 NMatD0=    1 NMtDS0=    0 NMtDT0=    0
 Petite list used in FoFCou.
 Keep R1 ints in memory in canonical form, NReq=4993994.
 Requested convergence on RMS density matrix=1.00D-08 within 128 cycles.
 Requested convergence on MAX density matrix=1.00D-06.
 Requested convergence on             energy=1.00D-06.
 No special actions if energy rises.
 Integral accuracy reduced to 1.0D-05 until final iterations.
 Initial convergence to 1.0D-05 achieved.  Increase integral accuracy.
 SCF Done:  E(RB3LYP) =  -562.509750592     A.U. after   13 cycles
            NFock= 13  Conv=0.98D-08     -V/T= 2.0140
 Calling FoFJK, ICntrl=      2127 FMM=F ISym2X=0 I1Cent= 0 IOpClX= 0 NMat=1 NMatS=1 NMatT=0.
 ***** Axes restored to original set *****
 -------------------------------------------------------------------
 Center     Atomic                   Forces (Hartrees/Bohr)
 Number     Number              X              Y              Z
 -------------------------------------------------------------------
      1        7           0.001446501   -0.002273072    0.000001261
      2        6          -0.001202256    0.004122715   -0.000000896
      3        6           0.001450604   -0.001783960    0.000001264
      4        6          -0.002157433    0.000908352   -0.000004127
      5        6           0.002767746   -0.000734523    0.000001777
      6        6           0.000319469    0.000407880   -0.000004494
      7        6          -0.007270852    0.007420323    0.000001883
      8        6           0.002948834   -0.000112487    0.000002711
      9        6          -0.001516099    0.000074853   -0.000002008
     10        6           0.000396770    0.000469097   -0.000001370
     11        6          -0.003133689   -0.005435817   -0.000005290
     12        6           0.004002441   -0.002627981    0.000002652
     13        7          -0.000458689   -0.001240542   -0.000000789
     14        6          -0.000467180    0.000735821    0.000000581
     15        1           0.000340515   -0.000355649    0.000001760
     16        1          -0.000344662    0.000082990    0.000001435
     17        1           0.000292927   -0.000005825    0.000000959
     18        1           0.001666065    0.000124564    0.000000341
     19        1           0.000918990    0.000223261    0.000002351
 -------------------------------------------------------------------
 Cartesian Forces:  Max     0.007420323 RMS     0.002022658

 GradGradGradGradGradGradGradGradGradGradGradGradGradGradGradGradGradGrad
 Berny optimization.
 Using GEDIIS/GDIIS optimizer.
 FormGI is forming the generalized inverse of G from B-inverse, IUseBI=4.
 Internal  Forces:  Max     0.006302321 RMS     0.001151576
 Search for a local minimum.
 Step number   3 out of a maximum of  102
 All quantities printed in internal units (Hartrees-Bohrs-Radians)
 Mixed Optimization -- RFO/linear search
 Update second derivatives using D2CorX and points    1    2    3
 DE= -3.63D-03 DEPred=-3.48D-03 R= 1.04D+00
 TightC=F SS=  1.41D+00  RLast= 1.92D-01 DXNew= 8.4853D-01 5.7478D-01
 Trust test= 1.04D+00 RLast= 1.92D-01 DXMaxT set to 5.75D-01
 ITU=  1  1  0
 Use linear search instead of GDIIS.
     Eigenvalues ---    0.01582   0.01697   0.01868   0.01875   0.01911
     Eigenvalues ---    0.01952   0.01988   0.02043   0.02065   0.02080
     Eigenvalues ---    0.02131   0.02137   0.02147   0.02157   0.02206
     Eigenvalues ---    0.02231   0.04868   0.04874   0.15788   0.16000
     Eigenvalues ---    0.16000   0.16028   0.16235   0.21301   0.22174
     Eigenvalues ---    0.23483   0.23525   0.24581   0.24993   0.25042
     Eigenvalues ---    0.25429   0.34729   0.34743   0.34809   0.35128
     Eigenvalues ---    0.35238   0.37557   0.39106   0.40012   0.40462
     Eigenvalues ---    0.40616   0.42340   0.43052   0.44642   0.45328
     Eigenvalues ---    0.45778   0.46261   0.46870   0.51419   1.27881
     Eigenvalues ---    1.34400
 RFO step:  Lambda=-1.51589774D-03 EMin= 1.58166110D-02
 Quartic linear search produced a step of -0.05393.
 Iteration  1 RMS(Cart)=  0.04310606 RMS(Int)=  0.00861955
 Iteration  2 RMS(Cart)=  0.01678042 RMS(Int)=  0.00061662
 Iteration  3 RMS(Cart)=  0.00062937 RMS(Int)=  0.00000518
 Iteration  4 RMS(Cart)=  0.00000063 RMS(Int)=  0.00000517
 Variable       Old X    -DE/DX   Delta X   Delta X   Delta X     New X
                                 (Linear)    (Quad)   (Total)
    R1        2.26951  -0.00157  -0.00072   0.00246   0.00174   2.27125
    R2        2.76587  -0.00025  -0.00061   0.00232   0.00171   2.76758
    R3        2.64382  -0.00019   0.00051  -0.00245  -0.00194   2.64189
    R4        2.76369  -0.00020  -0.00100   0.00420   0.00320   2.76689
    R5        2.70874   0.00099  -0.00078   0.00606   0.00528   2.71402
    R6        2.07641  -0.00048  -0.00022  -0.00029  -0.00051   2.07590
    R7        2.67447  -0.00121   0.00013  -0.00250  -0.00237   2.67211
    R8        2.75788  -0.00088  -0.00049   0.00035  -0.00014   2.75774
    R9        2.70682  -0.00004  -0.00063   0.00297   0.00233   2.70916
   R10        2.08167  -0.00034  -0.00038   0.00077   0.00039   2.08207
   R11        2.79929  -0.00324  -0.00122  -0.00136  -0.00258   2.79671
   R12        2.79116   0.00630  -0.00328   0.02760   0.02432   2.81548
   R13        2.67815   0.00175  -0.00008   0.00385   0.00379   2.68194
   R14        2.64968   0.00182   0.00004   0.00342   0.00347   2.65315
   R15        2.07311  -0.00029  -0.00013  -0.00017  -0.00030   2.07281
   R16        2.68748  -0.00155  -0.00014  -0.00185  -0.00200   2.68549
   R17        2.08586  -0.00088  -0.00025  -0.00108  -0.00133   2.08454
   R18        2.70760   0.00282  -0.00204   0.01478   0.01273   2.72033
   R19        2.08928   0.00023  -0.00046   0.00280   0.00234   2.09162
   R20        2.26903  -0.00131  -0.00074   0.00274   0.00200   2.27103
    A1        2.06785  -0.00043  -0.00051   0.00050  -0.00001   2.06783
    A2        2.10347  -0.00034   0.00091  -0.00505  -0.00414   2.09933
    A3        2.11186   0.00077  -0.00040   0.00455   0.00416   2.11602
    A4        2.09626  -0.00061   0.00044  -0.00363  -0.00319   2.09307
    A5        2.09781   0.00041  -0.00051   0.00360   0.00309   2.10090
    A6        2.08911   0.00020   0.00008   0.00003   0.00010   2.08921
    A7        2.08422  -0.00033   0.00020  -0.00142  -0.00122   2.08300
    A8        2.09210  -0.00047   0.00037  -0.00370  -0.00333   2.08876
    A9        2.10687   0.00080  -0.00056   0.00512   0.00455   2.11143
   A10        2.16300  -0.00042  -0.00148   0.00464   0.00316   2.16616
   A11        2.07468   0.00010   0.00049  -0.00180  -0.00131   2.07336
   A12        2.04551   0.00032   0.00099  -0.00284  -0.00185   2.04367
   A13        2.02097   0.00154   0.00175  -0.00275  -0.00100   2.01996
   A14        2.04911  -0.00015   0.00080  -0.00372  -0.00292   2.04619
   A15        2.21311  -0.00139  -0.00255   0.00648   0.00392   2.21703
   A16        2.09007  -0.00094  -0.00051  -0.00139  -0.00191   2.08816
   A17        2.13968   0.00041   0.00072  -0.00098  -0.00027   2.13941
   A18        2.05344   0.00053  -0.00021   0.00238   0.00218   2.05562
   A19        2.06743   0.00058   0.00121  -0.00423  -0.00300   2.06443
   A20        2.09595  -0.00026   0.00042  -0.00220  -0.00178   2.09417
   A21        2.11980  -0.00032  -0.00163   0.00642   0.00478   2.12458
   A22        2.11836   0.00079  -0.00024   0.00401   0.00377   2.12213
   A23        2.05404   0.00109   0.00032   0.00562   0.00594   2.05998
   A24        2.11078  -0.00188  -0.00009  -0.00962  -0.00971   2.10107
   A25        2.22513  -0.00161  -0.00345   0.00877   0.00530   2.23043
   A26        1.98778   0.00177   0.00322  -0.00512  -0.00190   1.98589
   A27        2.07027  -0.00016   0.00023  -0.00365  -0.00341   2.06686
   A28        1.88890   0.00109   0.00525  -0.01740  -0.01218   1.87672
   A29        3.19955  -0.00499  -0.00377  -0.25912  -0.26289   2.93667
   A30        3.14573  -0.00037  -0.00079  -0.00378  -0.00457   3.14116
   A31        3.14156   0.00000   0.00000   0.00012   0.00012   3.14169
   A32        3.14161   0.00000   0.00001  -0.00004  -0.00003   3.14157
    D1       -3.14155   0.00000   0.00000  -0.00001  -0.00002  -3.14157
    D2       -0.00002   0.00000   0.00000   0.00003   0.00002   0.00001
    D3        0.00003   0.00000   0.00000  -0.00001  -0.00001   0.00002
    D4        3.14157   0.00000   0.00000   0.00003   0.00003  -3.14159
    D5        3.14148   0.00000   0.00000   0.00005   0.00005   3.14152
    D6       -0.00013   0.00000   0.00000   0.00007   0.00007  -0.00006
    D7       -0.00011   0.00000   0.00000   0.00005   0.00004  -0.00006
    D8        3.14147   0.00000  -0.00001   0.00007   0.00006   3.14153
    D9        0.00002   0.00000   0.00001  -0.00003  -0.00002   0.00001
   D10       -3.14158   0.00000   0.00002  -0.00006  -0.00004   3.14156
   D11       -3.14151   0.00000   0.00001  -0.00006  -0.00006  -3.14157
   D12        0.00007   0.00000   0.00002  -0.00010  -0.00008  -0.00002
   D13        0.00000   0.00000  -0.00001   0.00003   0.00002   0.00001
   D14        3.14152   0.00000   0.00000   0.00005   0.00005   3.14157
   D15       -3.14158   0.00000  -0.00002   0.00006   0.00004  -3.14154
   D16       -0.00005   0.00000  -0.00001   0.00008   0.00007   0.00002
   D17       -0.00007   0.00000   0.00000   0.00001   0.00001  -0.00005
   D18        3.14152   0.00000   0.00001  -0.00001   0.00000   3.14152
   D19        3.14159   0.00000   0.00000  -0.00001  -0.00002   3.14157
   D20       -0.00001   0.00000   0.00000  -0.00003  -0.00003  -0.00004
[...]
 ! D14   D(4,5,6,16)           179.9986         -DE/DX =    0.0                 !
 ! D15   D(14,5,6,7)          -179.9995         -DE/DX =    0.0                 !
 ! D16   D(14,5,6,16)           -0.0007         -DE/DX =    0.0                 !
 ! D17   D(5,6,7,8)             -0.0012         -DE/DX =    0.0                 !
 ! D18   D(5,6,7,12)           179.9987         -DE/DX =    0.0                 !
 ! D19   D(16,6,7,8)           180.0            -DE/DX =    0.0                 !
 ! D20   D(16,6,7,12)           -0.0001         -DE/DX =    0.0                 !
 ! D21   D(6,7,8,3)              0.0015         -DE/DX =    0.0                 !
 ! D22   D(6,7,8,9)           -179.999          -DE/DX =    0.0                 !
 ! D23   D(12,7,8,3)          -179.9983         -DE/DX =    0.0                 !
 ! D24   D(12,7,8,9)             0.0011         -DE/DX =    0.0                 !
 ! D25   D(6,7,12,11)         -179.9986         -DE/DX =    0.0                 !
 ! D26   D(8,7,12,11)            0.0013         -DE/DX =    0.0                 !
 ! D27   D(3,8,9,10)           179.9977         -DE/DX =    0.0                 !
 ! D28   D(3,8,9,17)            -0.0017         -DE/DX =    0.0                 !
 ! D29   D(7,8,9,10)            -0.0018         -DE/DX =    0.0                 !
 ! D30   D(7,8,9,17)           179.9988         -DE/DX =    0.0                 !
 ! D31   D(8,9,10,11)           -0.0001         -DE/DX =    0.0                 !
 ! D32   D(8,9,10,18)          179.9995         -DE/DX =    0.0                 !
 ! D33   D(17,9,10,11)         179.9993         -DE/DX =    0.0                 !
 ! D34   D(17,9,10,18)          -0.0011         -DE/DX =    0.0                 !
 ! D35   D(9,10,11,12)           0.0031         -DE/DX =    0.0                 !
 ! D36   D(9,10,11,19)        -179.999          -DE/DX =    0.0                 !
 ! D37   D(18,10,11,12)       -179.9965         -DE/DX =    0.0                 !
 ! D38   D(18,10,11,19)          0.0015         -DE/DX =    0.0                 !
 ! D39   D(10,11,12,7)          -0.0034         -DE/DX =    0.0                 !
 ! D40   D(19,11,12,7)         179.9987         -DE/DX =    0.0                 !
 --------------------------------------------------------------------------------
 GradGradGradGradGradGradGradGradGradGradGradGradGradGradGradGradGradGrad

                          Input orientation:                          
 ---------------------------------------------------------------------
 Center     Atomic      Atomic             Coordinates (Angstroms)
 Number     Number       Type             X           Y           Z
 ---------------------------------------------------------------------
      1          7           0        0.975781   -0.092206    0.048057
      2          6           0        2.176018   -0.084985    0.049432
      3          6           0        3.639355   -0.076758    0.049586
      4          6           0        4.302543    1.154361    0.049910
      5          6           0        5.737200    1.198156    0.050105
      6          6           0        6.466340   -0.013366    0.049937
      7          6           0        5.856693   -1.308152    0.049583
      8          6           0        4.382317   -1.337552    0.049419
      9          6           0        3.743869   -2.604469    0.049090
     10          6           0        4.545330   -3.756482    0.048901
     11          6           0        5.962801   -3.677203    0.049029
     12          6           0        6.767757   -2.486434    0.049415
     13          7           0        6.980572    3.547545    0.050745
     14          6           0        6.420192    2.486217    0.050457
     15          1           0        3.730147    2.091510    0.050022
     16          1           0        7.566673    0.026329    0.050064
     17          1           0        2.649344   -2.668963    0.048978
     18          1           0        4.043297   -4.738333    0.048653
     19          1           0        6.476444   -4.655996    0.048837
 ---------------------------------------------------------------------
                    Distance matrix (angstroms):
                    1          2          3          4          5
     1  N    0.000000
     2  C    1.200259   0.000000
     3  C    2.663619   1.463360   0.000000
     4  C    3.552644   2.461318   1.398383   0.000000
     5  C    4.933168   3.785297   2.454865   1.435326   0.000000
     6  C    5.491125   4.290920   2.827696   2.458781   1.414011
     7  C    5.030092   3.878596   2.536320   2.911933   2.509154
     8  C    3.627034   2.537061   1.463418   2.493190   2.874982
     9  C    3.738152   2.967483   2.529870   3.800121   4.293405
    10  C    5.115525   4.369615   3.789612   4.916842   5.095978
    11  C    6.141871   5.219556   4.285045   5.108863   4.880576
    12  C    6.267321   5.181798   3.948853   4.396894   3.825997
    13  N    7.021774   6.023206   4.929433   3.591541   2.658120
    14  C    6.024108   4.962267   3.781785   2.501655   1.457937
    15  H    3.514989   2.674406   2.170168   1.098128   2.196895
    16  H    6.591958   5.391804   3.928671   3.453549   2.172590
    17  H    3.072538   2.626972   2.774824   4.165439   4.948684
    18  H    5.567419   5.014019   4.679044   5.898395   6.173428
    19  H    7.147410   6.275971   5.386882   6.203717   5.900642
                    6          7          8          9         10
     6  C    0.000000
     7  C    1.431132   0.000000
     8  C    2.469134   1.474670   0.000000
     9  C    3.758412   2.478803   1.418695   0.000000
    10  C    4.207280   2.777408   2.424417   1.403380   0.000000
    11  C    3.698278   2.371427   2.823456   2.464634   1.419687
    12  C    2.491370   1.489425   2.647689   3.026190   2.559727
    13  N    3.597850   4.984064   5.533092   6.951512   7.699300
    14  C    2.500009   3.835983   4.332914   5.751329   6.518159
    15  H    3.452137   4.009975   3.490528   4.695999   5.904535
    16  H    1.101049   2.169071   3.464144   4.640573   4.841299
    17  H    4.649910   3.484092   2.185372   1.096424   2.185741
    18  H    5.310034   3.880020   3.417638   2.154770   1.102755
    19  H    4.642642   3.404725   3.923958   3.416977   2.130335
                   11         12         13         14         15
    11  C    0.000000
    12  C    1.437318   0.000000
    13  N    7.296085   6.037732   0.000000
    14  C    6.180369   4.984783   1.200185   0.000000
    15  H    6.185693   5.494056   3.561643   2.718848   0.000000
    16  H    4.035908   2.636711   3.569661   2.713940   4.357052
    17  H    3.463459   4.122456   7.576577   6.387110   4.881623
    18  H    2.193284   3.534647   8.791096   7.605508   6.837019
    19  H    1.105380   2.189032   8.219017   7.142435   7.284984
                   16         17         18         19
    16  H    0.000000
    17  H    5.607560   0.000000
    18  H    5.925891   2.495075   0.000000
    19  H    4.807574   4.312192   2.434540   0.000000
 Stoichiometry    C12H5N2(1-)
 Framework group  C1[X(C12H5N2)]
 Deg. of freedom    51
 Full point group                 C1      NOp   1
 Largest Abelian subgroup         C1      NOp   1
 Largest concise Abelian subgroup C1      NOp   1
                         Standard orientation:                         
 ---------------------------------------------------------------------
 Center     Atomic      Atomic             Coordinates (Angstroms)
 Number     Number       Type             X           Y           Z
 ---------------------------------------------------------------------
      1          7           0       -0.687318    3.825366   -0.000674
      2          6           0       -0.334578    2.678110    0.000423
      3          6           0        0.094932    1.279203    0.000241
      4          6           0        1.464927    0.998863    0.000173
      5          6           0        1.920233   -0.362333    0.000031
      6          6           0        0.970179   -1.409628   -0.000070
      7          6           0       -0.445355   -1.198904   -0.000032
      8          6           0       -0.898322    0.204475    0.000147
      9          6           0       -2.295466    0.450809    0.000211
     10          6           0       -3.167699   -0.648594    0.000062
     11          6           0       -2.683364   -1.983109   -0.000151
     12          6           0       -1.311162   -2.410829   -0.000181
     13          7           0        4.528241   -0.876043   -0.000072
     14          6           0        3.350460   -0.645229   -0.000025
     15          1           0        2.197407    1.817006    0.000234
     16          1           0        1.325230   -2.451859   -0.000203
     17          1           0       -2.672593    1.480334    0.000363
     18          1           0       -4.252562   -0.450753    0.000120
     19          1           0       -3.472651   -2.756989   -0.000270
 ---------------------------------------------------------------------
 Rotational constants (GHZ):      0.9623574      0.5889508      0.3653569

 **********************************************************************

            Population analysis using the SCF density.

 **********************************************************************

 Orbital symmetries:
       Occupied  (A) (A) (A) (A) (A) (A) (A) (A) (A) (A) (A) (A)
                 (A) (A) (A) (A) (A) (A) (A) (A) (A) (A) (A) (A)
                 (A) (A) (A) (A) (A) (A) (A) (A) (A) (A) (A) (A)
                 (A) (A) (A) (A) (A) (A) (A) (A) (A) (A)
       Virtual   (A) (A) (A) (A) (A) (A) (A) (A) (A) (A) (A) (A)
                 (A) (A) (A) (A) (A) (A) (A) (A) (A) (A) (A) (A)
                 (A) (A) (A) (A) (A)
 The electronic state is 1-A.
 Alpha  occ. eigenvalues --  -13.99046 -13.99007  -9.90473  -9.90206  -9.89609
 Alpha  occ. eigenvalues --   -9.89559  -9.89390  -9.87703  -9.86506  -9.83905
 Alpha  occ. eigenvalues --   -9.82877  -9.82871  -9.78625  -9.66484  -0.72724
 Alpha  occ. eigenvalues --   -0.72500  -0.67282  -0.61424  -0.58689  -0.54215
 Alpha  occ. eigenvalues --   -0.50185  -0.45049  -0.43248  -0.39326  -0.34783
 Alpha  occ. eigenvalues --   -0.31202  -0.30165  -0.28977  -0.25370  -0.22935
 Alpha  occ. eigenvalues --   -0.21277  -0.19601  -0.18475  -0.17645  -0.16469
 Alpha  occ. eigenvalues --   -0.15834  -0.14687  -0.14320  -0.14223  -0.13261
 Alpha  occ. eigenvalues --   -0.10549  -0.08926  -0.06636  -0.02917   0.02430
 Alpha  occ. eigenvalues --    0.11323
 Alpha virt. eigenvalues --    0.16847   0.19438   0.25139   0.26369   0.27120
 Alpha virt. eigenvalues --    0.28523   0.33792   0.37730   0.41884   0.45744
 Alpha virt. eigenvalues --    0.46095   0.50751   0.53729   0.54171   0.57821
 Alpha virt. eigenvalues --    0.59851   0.62068   0.63548   0.66931   0.69318
 Alpha virt. eigenvalues --    0.70305   0.75619   0.78504   0.81832   0.84624
 Alpha virt. eigenvalues --    0.92223   0.93122   1.06159   1.07073
          Condensed to atoms (all electrons):
               1          2          3          4          5          6
     1  N    6.591797   0.659497  -0.010698  -0.000124  -0.000001   0.000000
     2  C    0.659497   4.936606   0.416523  -0.031825   0.000907   0.000003
     3  C   -0.010698   0.416523   4.784418   0.515349  -0.029133  -0.009227
     4  C   -0.000124  -0.031825   0.515349   4.826644   0.468132  -0.028983
     5  C   -0.000001   0.000907  -0.029133   0.468132   4.787650   0.491057
     6  C    0.000000   0.000003  -0.009227  -0.028983   0.491057   4.838206
     7  C   -0.000001   0.000650  -0.021722  -0.007439  -0.024970   0.474503
     8  C   -0.000023  -0.025718   0.442077  -0.027404  -0.007735  -0.033443
     9  C   -0.000116  -0.004002  -0.029030   0.000677   0.000042   0.000872
    10  C    0.000000   0.000016   0.000821  -0.000007   0.000000   0.000013
    11  C    0.000000   0.000000   0.000043   0.000001  -0.000015   0.001431
    12  C    0.000000  -0.000003   0.000522   0.000014   0.000746  -0.034481
    13  N    0.000000   0.000000  -0.000001  -0.000084  -0.011127  -0.000096
    14  C    0.000000  -0.000006   0.000831  -0.029321   0.423301  -0.027970
    15  H    0.000059  -0.003795  -0.024570   0.386939  -0.024019   0.001219
    16  H    0.000000   0.000001   0.000030   0.001302  -0.026386   0.382997
    17  H   -0.000149   0.001426  -0.003623   0.000016  -0.000001  -0.000021
    18  H    0.000000   0.000000  -0.000016   0.000000   0.000000   0.000001
    19  H    0.000000   0.000000   0.000001   0.000000   0.000000  -0.000016
               7          8          9         10         11         12
     1  N   -0.000001  -0.000023  -0.000116   0.000000   0.000000   0.000000
     2  C    0.000650  -0.025718  -0.004002   0.000016   0.000000  -0.000003
     3  C   -0.021722   0.442077  -0.029030   0.000821   0.000043   0.000522
     4  C   -0.007439  -0.027404   0.000677  -0.000007   0.000001   0.000014
     5  C   -0.024970  -0.007735   0.000042   0.000000  -0.000015   0.000746
     6  C    0.474503  -0.033443   0.000872   0.000013   0.001431  -0.034481
     7  C    4.907858   0.428401  -0.030366  -0.013687  -0.029778   0.386429
     8  C    0.428401   4.828878   0.489874  -0.029091  -0.012107  -0.017268
     9  C   -0.030366   0.489874   4.869984   0.504742  -0.029900  -0.005876
    10  C   -0.013687  -0.029091   0.504742   4.850791   0.479246  -0.017816
    11  C   -0.029778  -0.012107  -0.029900   0.479246   4.942947   0.439652
    12  C    0.386429  -0.017268  -0.005876  -0.017816   0.439652   5.493701
    13  N   -0.000001   0.000000   0.000000   0.000000   0.000000   0.000000
    14  C    0.000761   0.000004   0.000000   0.000000   0.000000  -0.000006
    15  H    0.000024   0.001197  -0.000016   0.000000   0.000000   0.000000
    16  H   -0.025174   0.001440  -0.000017   0.000000   0.000036  -0.001627
    17  H    0.001175  -0.025646   0.387254  -0.024629   0.001238  -0.000004
    18  H    0.000100   0.001483  -0.028367   0.379969  -0.023945   0.001086
    19  H    0.002258   0.000007   0.001473  -0.035727   0.380079  -0.032213
              13         14         15         16         17         18
     1  N    0.000000   0.000000   0.000059   0.000000  -0.000149   0.000000
     2  C    0.000000  -0.000006  -0.003795   0.000001   0.001426   0.000000
     3  C   -0.000001   0.000831  -0.024570   0.000030  -0.003623  -0.000016
     4  C   -0.000084  -0.029321   0.386939   0.001302   0.000016   0.000000
     5  C   -0.011127   0.423301  -0.024019  -0.026386  -0.000001   0.000000
     6  C   -0.000096  -0.027970   0.001219   0.382997  -0.000021   0.000001
     7  C   -0.000001   0.000761   0.000024  -0.025174   0.001175   0.000100
     8  C    0.000000   0.000004   0.001197   0.001440  -0.025646   0.001483
     9  C    0.000000   0.000000  -0.000016  -0.000017   0.387254  -0.028367
    10  C    0.000000   0.000000   0.000000   0.000000  -0.024629   0.379969
    11  C    0.000000   0.000000   0.000000   0.000036   0.001238  -0.023945
    12  C    0.000000  -0.000006   0.000000  -0.001627  -0.000004   0.001086
    13  N    6.594535   0.659756   0.000058   0.000059   0.000000   0.000000
    14  C    0.659756   4.934314  -0.003085  -0.003348   0.000000   0.000000
    15  H    0.000058  -0.003085   0.595081  -0.000033  -0.000001   0.000000
    16  H    0.000059  -0.003348  -0.000033   0.591753   0.000000   0.000000
    17  H    0.000000   0.000000  -0.000001   0.000000   0.619663  -0.003720
    18  H    0.000000   0.000000   0.000000   0.000000  -0.003720   0.640285
    19  H    0.000000   0.000000   0.000000  -0.000004  -0.000039  -0.003843
              19
     1  N    0.000000
     2  C    0.000000
     3  C    0.000001
     4  C    0.000000
     5  C    0.000000
     6  C   -0.000016
     7  C    0.002258
     8  C    0.000007
     9  C    0.001473
    10  C   -0.035727
    11  C    0.380079
    12  C   -0.032213
    13  N    0.000000
    14  C    0.000000
    15  H    0.000000
    16  H   -0.000004
    17  H   -0.000039
    18  H   -0.003843
    19  H    0.674514
 Mulliken charges:
               1
     1  N   -0.240240
     2  C    0.049722
     3  C   -0.032596
     4  C   -0.073886
     5  C   -0.048449
     6  C   -0.056065
     7  C   -0.049021
     8  C   -0.014926
     9  C   -0.127230
    10  C   -0.094643
    11  C   -0.148926
    12  C   -0.212858
    13  N   -0.243100
    14  C    0.044768
    15  H    0.070941
    16  H    0.078971
    17  H    0.047060
    18  H    0.036967
    19  H    0.013510
 Sum of Mulliken charges =  -1.00000
 Mulliken charges with hydrogens summed into heavy atoms:
               1
     1  N   -0.240240
     2  C    0.049722
     3  C   -0.032596
     4  C   -0.002945
     5  C   -0.048449
     6  C    0.022906
     7  C   -0.049021
     8  C   -0.014926
     9  C   -0.080170
    10  C   -0.057676
    11  C   -0.135416
    12  C   -0.212858
    13  N   -0.243100
    14  C    0.044768
 Electronic spatial extent (au):  <R**2>=           2799.1571
 Charge=             -1.0000 electrons
 Dipole moment (field-independent basis, Debye):
    X=              0.1872    Y=              2.4256    Z=              0.0017  Tot=              2.4328
 Quadrupole moment (field-independent basis, Debye-Ang):
   XX=           -108.7716   YY=           -109.0399   ZZ=            -74.1551
   XY=              0.8508   XZ=             -0.0011   YZ=              0.0038
 Traceless Quadrupole moment (field-independent basis, Debye-Ang):
   XX=            -11.4494   YY=            -11.7177   ZZ=             23.1671
   XY=              0.8508   XZ=             -0.0011   YZ=              0.0038
 Octapole moment (field-independent basis, Debye-Ang**2):
  XXX=           -112.0289  YYY=            -28.6860  ZZZ=             -0.0019  XYY=             41.1289
  XXY=             42.7849  XXZ=              0.0039  XZZ=              4.4959  YZZ=              2.9150
  YYZ=              0.0256  XYZ=             -0.0025
 Hexadecapole moment (field-independent basis, Debye-Ang**3):
 XXXX=          -2899.2425 YYYY=          -1847.5225 ZZZZ=            -58.3619 XXXY=             99.1727
 XXXZ=              0.0102 YYYX=             -5.6569 YYYZ=              0.0714 ZZZX=              0.0002
 ZZZY=             -0.0064 XXYY=           -641.6325 XXZZ=           -377.5856 YYZZ=           -231.9626
 XXYZ=             -0.0015 YYXZ=             -0.0228 ZZXY=             -6.9126
 N-N= 6.944635731516D+02 E-N=-2.710961003310D+03  KE= 5.547331408140D+02
 1\1\GINC-N045\FOpt\RB3LYP\STO-3G\C12H5N2(1-)\R2532\15-Jun-2021\0\\#N B
 3LYP/STO-3G OPT\\1Naph\\-1,1\N,0.975781135,-0.0922057847,0.0480573814\
 C,2.1760177976,-0.084984788,0.0494316621\C,3.6393545405,-0.0767581663,
 0.0495863183\C,4.3025428665,1.1543614957,0.0499098539\C,5.737200357,1.
 1981557744,0.0501053734\C,6.466339638,-0.0133655257,0.0499370058\C,5.8
 566931861,-1.3081515952,0.0495830729\C,4.3823166946,-1.3375515458,0.04
 94188637\C,3.7438691475,-2.6044686045,0.0490897055\C,4.5453297583,-3.7
 564822005,0.0489005872\C,5.9628012411,-3.6772032266,0.0490291885\C,6.7
 677565742,-2.4864344932,0.0494148499\N,6.9805715783,3.5475453215,0.050
 7445238\C,6.420191664,2.4862169633,0.0504569782\H,3.7301466182,2.09150
 99142,0.0500218487\H,7.5666725547,0.026328878,0.0500639423\H,2.6493435
 106,-2.6689630589,0.0489782301\H,4.0432969642,-4.7383332234,0.04865347
 58\H,6.4764441735,-4.6559961343,0.0488371384\\Version=ES64L-G09RevD.01
 \State=1-A\HF=-562.510064\RMSD=7.070e-10\RMSF=1.486e-05\Dipole=-0.8926
 255,0.3454876,0.0005458\Quadrupole=-9.0442974,-8.1798545,17.2241519,-0
 .4725008,-0.009069,-0.0050374\PG=C01 [X(C12H5N2)]\\@


 EDUCATION DOESN'T COST 
           ... IT PAYS!

 -- POSTMARK, UNIV. OF MISSISSIPPI, DEC 78
 Job cpu time:       0 days  0 hours  4 minutes 41.5 seconds.
 File lengths (MBytes):  RWF=      5 Int=      0 D2E=      0 Chk=      2 Scr=      1
 Normal termination of Gaussian 09 at Tue Jun 15 11:18:19 2021.
