 Entering Gaussian System, Link 0=/usr/local/apps//g09/g09
 Input=25.com
 Output=25.out
 Initial command:
 /usr/local/apps//g09/l1.exe "/tmp/bnp.472814.sequoia/Gau-11911.inp" -scrdir="/tmp/bnp.472814.sequoia/"
 Entering Link 1 = /usr/local/apps//g09/l1.exe PID=     11912.
  
 Copyright (c) 1988,1990,1992,1993,1995,1998,2003,2009,2013,
            Gaussian, Inc.  All Rights Reserved.
  
 This is part of the Gaussian(R) 09 program.  It is based on
 the Gaussian(R) 03 system (copyright 2003, Gaussian, Inc.),
 the Gaussian(R) 98 system (copyright 1998, Gaussian, Inc.),
 the Gaussian(R) 94 system (copyright 1995, Gaussian, Inc.),
 the Gaussian 92(TM) system (copyright 1992, Gaussian, Inc.),
 the Gaussian 90(TM) system (copyright 1990, Gaussian, Inc.),
 the Gaussian 88(TM) system (copyright 1988, Gaussian, Inc.),
 the Gaussian 86(TM) system (copyright 1986, Carnegie Mellon
 University), and the Gaussian 82(TM) system (copyright 1983,
 Carnegie Mellon University). Gaussian is a federally registered
 trademark of Gaussian, Inc.
  
 This software contains proprietary and confidential information,
 including trade secrets, belonging to Gaussian, Inc.
  
 This software is provided under written license and may be
 used, copied, transmitted, or stored only in accord with that
 written license.
  
 The following legend is applicable only to US Government
 contracts under FAR:
  
                    RESTRICTED RIGHTS LEGEND
  
 Use, reproduction and disclosure by the US Government is
 subject to restrictions as set forth in subparagraphs (a)
 and (c) of the Commercial Computer Software - Restricted
 Rights clause in FAR 52.227-19.
  
 Gaussian, Inc.
 340 Quinnipiac St., Bldg. 40, Wallingford CT 06492
  
  
 ---------------------------------------------------------------
 Warning -- This program may not be used in any manner that
 competes with the business of Gaussian, Inc. or will provide
 assistance to any competitor of Gaussian, Inc.  The licensee
 of this program is prohibited from giving any competitor of
 Gaussian, Inc. access to this program.  By using this program,
 the user acknowledges that Gaussian, Inc. is engaged in the
 business of creating and licensing software in the field of
 computational chemistry and represents and warrants to the
 licensee that it is not a competitor of Gaussian, Inc. and that
 it will not use this program in any manner prohibited above.
 ---------------------------------------------------------------
  

 Cite this work as:
 Gaussian 09, Revision D.01,
 M. J. Frisch, G. W. Trucks, H. B. Schlegel, G. E. Scuseria, 
 M. A. Robb, J. R. Cheeseman, G. Scalmani, V. Barone, B. Mennucci, 
 G. A. Petersson, H. Nakatsuji, M. Caricato, X. Li, H. P. Hratchian, 
 A. F. Izmaylov, J. Bloino, G. Zheng, J. L. Sonnenberg, M. Hada, 
 M. Ehara, K. Toyota, R. Fukuda, J. Hasegawa, M. Ishida, T. Nakajima, 
 Y. Honda, O. Kitao, H. Nakai, T. Vreven, J. A. Montgomery, Jr., 
 J. E. Peralta, F. Ogliaro, M. Bearpark, J. J. Heyd, E. Brothers, 
 K. N. Kudin, V. N. Staroverov, T. Keith, R. Kobayashi, J. Normand, 
 K. Raghavachari, A. Rendell, J. C. Burant, S. S. Iyengar, J. Tomasi, 
 M. Cossi, N. Rega, J. M. Millam, M. Klene, J. E. Knox, J. B. Cross, 
 V. Bakken, C. Adamo, J. Jaramillo, R. Gomperts, R. E. Stratmann, 
 O. Yazyev, A. J. Austin, R. Cammi, C. Pomelli, J. W. Ochterski, 
 R. L. Martin, K. Morokuma, V. G. Zakrzewski, G. A. Voth, 
 P. Salvador, J. J. Dannenberg, S. Dapprich, A. D. Daniels, 
 O. Farkas, J. B. Foresman, J. V. Ortiz, J. Cioslowski, 
 and D. J. Fox, Gaussian, Inc., Wallingford CT, 2013.
 
 ******************************************
 Gaussian 09:  ES64L-G09RevD.01 24-Apr-2013
                15-Jun-2021 
 ******************************************
 -------------------
 #N B3LYP/STO-3G OPT
 -------------------
 1/14=-1,18=20,19=15,26=3,38=1/1,3;
 2/9=110,12=2,17=6,18=5,40=1/2;
 3/6=3,11=2,16=1,25=1,30=1,71=1,74=-5/1,2,3;
 4//1;
 5/5=2,38=5/2;
 6/7=2,8=2,9=2,10=2,28=1/1;
 7//1,2,3,16;
 1/14=-1,18=20,19=15,26=3/3(2);
 2/9=110/2;
 99//99;
 2/9=110/2;
 3/6=3,11=2,16=1,25=1,30=1,71=1,74=-5/1,2,3;
 4/5=5,16=3,69=1/1;
 5/5=2,38=5/2;
 7//1,2,3,16;
 1/14=-1,18=20,19=15,26=3/3(-5);
 2/9=110/2;
 6/7=2,8=2,9=2,10=2,19=2,28=1/1;
 99/9=1/99;
 -----
 1Naph
 -----
 Symbolic Z-matrix:
 Charge = -1 Multiplicity = 1
 N                     11.07567   5.98347  -0.17159 
 C                     10.47076   5.05301   0.168 
 C                     9.71892   3.90374   0.58859 
 C                     10.37225   2.95132   1.38278 
 C                     9.69282   1.82348   1.82161 
 C                     8.35903   1.63627   1.47445 
 C                     7.68073   2.57299   0.68042 
 C                     8.35781   3.73114   0.21977 
 C                     7.63119   4.64729  -0.58278 
 C                     6.28794   4.42647  -0.91343 
 C                     5.64191   3.2841   -0.44757 
 C                     6.33414   2.36508   0.34258 
 N                     5.00311   6.13064  -2.3877 
 C                     5.58004   5.37046  -1.72826 
 H                     11.41471   3.08019   1.66669 
 H                     7.85516   0.74211   1.83587 
 H                     8.1137    5.54991  -0.96061 
 H                     4.59735   3.09776  -0.69364 
 H                     5.80754   1.47884   0.6945 
 

 GradGradGradGradGradGradGradGradGradGradGradGradGradGradGradGradGradGrad
 Berny optimization.
 Initialization pass.
                           ----------------------------
                           !    Initial Parameters    !
                           ! (Angstroms and Degrees)  !
 --------------------------                            --------------------------
 ! Name  Definition              Value          Derivative Info.                !
 --------------------------------------------------------------------------------
 ! R1    R(1,2)                  1.1606         estimate D2E/DX2                !
 ! R2    R(2,3)                  1.4363         estimate D2E/DX2                !
 ! R3    R(3,4)                  1.4017         estimate D2E/DX2                !
 ! R4    R(3,8)                  1.4207         estimate D2E/DX2                !
 ! R5    R(4,5)                  1.3879         estimate D2E/DX2                !
 ! R6    R(4,15)                 1.0881         estimate D2E/DX2                !
 ! R7    R(5,6)                  1.3909         estimate D2E/DX2                !
 ! R8    R(6,7)                  1.4029         estimate D2E/DX2                !
 ! R9    R(6,16)                 1.0881         estimate D2E/DX2                !
 ! R10   R(7,8)                  1.4184         estimate D2E/DX2                !
 ! R11   R(7,12)                 1.4038         estimate D2E/DX2                !
 ! R12   R(8,9)                  1.4182         estimate D2E/DX2                !
 ! R13   R(9,10)                 1.4009         estimate D2E/DX2                !
 ! R14   R(9,17)                 1.091          estimate D2E/DX2                !
 ! R15   R(10,11)                1.3926         estimate D2E/DX2                !
 ! R16   R(10,14)                1.4339         estimate D2E/DX2                !
 ! R17   R(11,12)                1.3957         estimate D2E/DX2                !
 ! R18   R(11,18)                1.0892         estimate D2E/DX2                !
 ! R19   R(12,19)                1.0893         estimate D2E/DX2                !
 ! R20   R(13,14)                1.16           estimate D2E/DX2                !
 ! A1    A(2,3,4)              117.7509         estimate D2E/DX2                !
 ! A2    A(2,3,8)              121.5123         estimate D2E/DX2                !
 ! A3    A(4,3,8)              120.7366         estimate D2E/DX2                !
 ! A4    A(3,4,5)              120.2084         estimate D2E/DX2                !
 ! A5    A(3,4,15)             120.9257         estimate D2E/DX2                !
 ! A6    A(5,4,15)             118.8658         estimate D2E/DX2                !
 ! A7    A(4,5,6)              119.9939         estimate D2E/DX2                !
 ! A8    A(5,6,7)              121.0017         estimate D2E/DX2                !
 ! A9    A(5,6,16)             118.1481         estimate D2E/DX2                !
 ! A10   A(7,6,16)             120.8502         estimate D2E/DX2                !
 ! A11   A(6,7,8)              119.8816         estimate D2E/DX2                !
 ! A12   A(6,7,12)             120.0747         estimate D2E/DX2                !
 ! A13   A(8,7,12)             120.0437         estimate D2E/DX2                !
 ! A14   A(3,8,7)              118.1774         estimate D2E/DX2                !
 ! A15   A(3,8,9)              124.0053         estimate D2E/DX2                !
 ! A16   A(7,8,9)              117.8173         estimate D2E/DX2                !
 ! A17   A(8,9,10)             121.5344         estimate D2E/DX2                !
 ! A18   A(8,9,17)             120.253          estimate D2E/DX2                !
 ! A19   A(10,9,17)            118.2126         estimate D2E/DX2                !
 ! A20   A(9,10,11)            119.6806         estimate D2E/DX2                !
 ! A21   A(9,10,14)            120.2467         estimate D2E/DX2                !
 ! A22   A(11,10,14)           120.0726         estimate D2E/DX2                !
 ! A23   A(10,11,12)           119.962          estimate D2E/DX2                !
 ! A24   A(10,11,18)           120.6399         estimate D2E/DX2                !
 ! A25   A(12,11,18)           119.398          estimate D2E/DX2                !
 ! A26   A(7,12,11)            120.9617         estimate D2E/DX2                !
 ! A27   A(7,12,19)            120.4291         estimate D2E/DX2                !
 ! A28   A(11,12,19)           118.6092         estimate D2E/DX2                !
 ! A29   L(1,2,3,13,-1)        179.8723         estimate D2E/DX2                !
 ! A30   L(10,14,13,1,-1)      180.2697         estimate D2E/DX2                !
 ! A31   L(1,2,3,13,-2)        180.0933         estimate D2E/DX2                !
 ! A32   L(10,14,13,1,-2)      179.9577         estimate D2E/DX2                !
 ! D1    D(2,3,4,5)            179.776          estimate D2E/DX2                !
 ! D2    D(2,3,4,15)            -0.1748         estimate D2E/DX2                !
 ! D3    D(8,3,4,5)             -0.0768         estimate D2E/DX2                !
 ! D4    D(8,3,4,15)           179.9724         estimate D2E/DX2                !
 ! D5    D(2,3,8,7)           -179.6627         estimate D2E/DX2                !
 ! D6    D(2,3,8,9)              0.3366         estimate D2E/DX2                !
 ! D7    D(4,3,8,7)              0.1845         estimate D2E/DX2                !
 ! D8    D(4,3,8,9)           -179.8162         estimate D2E/DX2                !
 ! D9    D(3,4,5,6)             -0.0594         estimate D2E/DX2                !
 ! D10   D(15,4,5,6)           179.8924         estimate D2E/DX2                !
 ! D11   D(4,5,6,7)              0.0839         estimate D2E/DX2                !
 ! D12   D(4,5,6,16)          -179.9239         estimate D2E/DX2                !
 ! D13   D(5,6,7,8)              0.0282         estimate D2E/DX2                !
 ! D14   D(5,6,7,12)          -179.948          estimate D2E/DX2                !
 ! D15   D(16,6,7,8)          -179.9638         estimate D2E/DX2                !
 ! D16   D(16,6,7,12)            0.06           estimate D2E/DX2                !
 ! D17   D(6,7,8,3)             -0.1594         estimate D2E/DX2                !
 ! D18   D(6,7,8,9)            179.8412         estimate D2E/DX2                !
 ! D19   D(12,7,8,3)           179.8168         estimate D2E/DX2                !
 ! D20   D(12,7,8,9)            -0.1826         estimate D2E/DX2                !
 ! D21   D(6,7,12,11)         -179.9236         estimate D2E/DX2                !
 ! D22   D(6,7,12,19)            0.0934         estimate D2E/DX2                !
 ! D23   D(8,7,12,11)            0.1002         estimate D2E/DX2                !
 ! D24   D(8,7,12,19)         -179.8828         estimate D2E/DX2                !
 ! D25   D(3,8,9,10)          -179.8815         estimate D2E/DX2                !
 ! D26   D(3,8,9,17)             0.1571         estimate D2E/DX2                !
 ! D27   D(7,8,9,10)             0.1178         estimate D2E/DX2                !
 ! D28   D(7,8,9,17)          -179.8435         estimate D2E/DX2                !
 ! D29   D(8,9,10,11)            0.0333         estimate D2E/DX2                !
 ! D30   D(8,9,10,14)         -179.925          estimate D2E/DX2                !
 ! D31   D(17,9,10,11)         179.9954         estimate D2E/DX2                !
 ! D32   D(17,9,10,14)           0.0372         estimate D2E/DX2                !
 ! D33   D(9,10,11,12)          -0.1211         estimate D2E/DX2                !
 ! D34   D(9,10,11,18)         179.8877         estimate D2E/DX2                !
 ! D35   D(14,10,11,12)        179.8373         estimate D2E/DX2                !
 ! D36   D(14,10,11,18)         -0.154          estimate D2E/DX2                !
 ! D37   D(10,11,12,7)           0.055          estimate D2E/DX2                !
 ! D38   D(10,11,12,19)       -179.9616         estimate D2E/DX2                !
 ! D39   D(18,11,12,7)        -179.9536         estimate D2E/DX2                !
 ! D40   D(18,11,12,19)          0.0297         estimate D2E/DX2                !
 --------------------------------------------------------------------------------
 Trust Radius=3.00D-01 FncErr=1.00D-07 GrdErr=1.00D-06
 Number of steps in this run=    102 maximum allowed number of steps=    114.
 GradGradGradGradGradGradGradGradGradGradGradGradGradGradGradGradGradGrad

                          Input orientation:                          
 ---------------------------------------------------------------------
 Center     Atomic      Atomic             Coordinates (Angstroms)
 Number     Number       Type             X           Y           Z
 ---------------------------------------------------------------------
      1          7           0       11.075670    5.983470   -0.171590
      2          6           0       10.470760    5.053010    0.168000
      3          6           0        9.718920    3.903740    0.588590
      4          6           0       10.372250    2.951320    1.382780
      5          6           0        9.692820    1.823480    1.821610
      6          6           0        8.359030    1.636270    1.474450
      7          6           0        7.680730    2.572990    0.680420
      8          6           0        8.357810    3.731140    0.219770
      9          6           0        7.631190    4.647290   -0.582780
     10          6           0        6.287940    4.426470   -0.913430
     11          6           0        5.641910    3.284100   -0.447570
     12          6           0        6.334140    2.365080    0.342580
     13          7           0        5.003110    6.130640   -2.387700
     14          6           0        5.580040    5.370460   -1.728260
     15          1           0       11.414710    3.080190    1.666690
     16          1           0        7.855160    0.742110    1.835870
     17          1           0        8.113700    5.549910   -0.960610
     18          1           0        4.597350    3.097760   -0.693640
     19          1           0        5.807540    1.478840    0.694500
 ---------------------------------------------------------------------
                    Distance matrix (angstroms):
                    1          2          3          4          5
     1  N    0.000000
     2  C    1.160600   0.000000
     3  C    2.596906   1.436308   0.000000
     4  C    3.479195   2.429505   1.401671   0.000000
     5  C    4.815666   3.710725   2.418367   1.387883   0.000000
     6  C    5.384025   4.223781   2.788453   2.406411   1.390886
     7  C    4.887015   3.767936   2.435887   2.807263   2.431581
     8  C    3.551467   2.492906   1.420718   2.453300   2.826183
     9  C    3.717378   2.965036   2.506709   3.775334   4.243267
    10  C    5.088903   4.365550   3.781658   4.912254   5.084212
    11  C    6.073591   5.179359   4.252010   5.083015   4.867490
    12  C    5.986587   4.936301   3.726222   4.210941   3.709662
    13  N    6.465972   6.130912   6.004686   7.290560   7.633040
    14  C    5.744645   5.255066   4.964815   6.204521   6.488267
    15  H    3.453007   2.651251   2.171690   1.088088   2.137341
    16  H    6.470969   5.311027   3.876237   3.379592   2.132266
    17  H    3.095770   2.660151   2.772477   4.164756   4.911278
    18  H    7.111152   6.249990   5.340805   6.138602   5.823580
    19  H    6.985342   5.898942   4.603287   4.845462   4.060118
                    6          7          8          9         10
     6  C    0.000000
     7  C    1.402861   0.000000
     8  C    2.441865   1.418431   0.000000
     9  C    3.718627   2.429166   1.418236   0.000000
    10  C    4.216231   2.813469   2.460079   1.400861   0.000000
    11  C    3.713791   2.436150   2.832190   2.415327   1.392620
    12  C    2.431558   1.403804   2.444676   2.783363   2.414337
    13  N    6.810122   5.407391   4.879602   3.516371   2.593927
    14  C    5.650160   4.247408   3.768050   2.458112   1.433941
    15  H    3.385121   3.895201   3.444118   4.672359   5.895190
    16  H    1.088132   2.172006   3.434929   4.598963   4.856886
    17  H    4.615873   3.426732   2.181928   1.091006   2.144235
    18  H    4.581136   3.416234   3.921294   3.408448   2.161451
    19  H    2.672678   2.169379   3.435419   3.872495   3.391865
                   11         12         13         14         15
    11  C    0.000000
    12  C    1.395750   0.000000
    13  N    3.503564   4.837924   0.000000
    14  C    2.448855   3.726842   1.159993   0.000000
    15  H    6.151170   5.298758   8.176303   7.128422   0.000000
    16  H    4.071153   2.679076   7.416804   6.269036   4.262116
    17  H    3.392175   3.874052   3.471254   2.653474   4.888649
    18  H    1.089210   2.151049   3.497548   2.683521   7.214421
    19  H    2.142597   1.089301   5.637935   4.589796   5.911838
                   16         17         18         19
    16  H    0.000000
    17  H    5.567952   0.000000
    18  H    4.749825   4.295233   0.000000
    19  H    2.457284   4.963001   2.452018   0.000000
 Stoichiometry    C12H5N2(1-)
 Framework group  C1[X(C12H5N2)]
 Deg. of freedom    51
 Full point group                 C1      NOp   1
 Largest Abelian subgroup         C1      NOp   1
 Largest concise Abelian subgroup C1      NOp   1
                         Standard orientation:                         
 ---------------------------------------------------------------------
 Center     Atomic      Atomic             Coordinates (Angstroms)
 Number     Number       Type             X           Y           Z
 ---------------------------------------------------------------------
      1          7           0        1.825320    3.290594    0.008262
      2          6           0        1.761301    2.131775    0.002491
      3          6           0        1.678877    0.697842   -0.002361
      4          6           0        2.879831   -0.024920   -0.004811
      5          6           0        2.859677   -1.412657   -0.004817
      6          6           0        1.645096   -2.090405   -0.001139
      7          6           0        0.428186   -1.392447    0.000853
      8          6           0        0.427061    0.025982   -0.001494
      9          6           0       -0.827808    0.686811   -0.002818
     10          6           0       -2.032419   -0.028250    0.000599
     11          6           0       -2.007795   -1.420641    0.006120
     12          6           0       -0.786445   -2.096232    0.005666
     13          7           0       -4.302458    1.226875   -0.005671
     14          6           0       -3.285850    0.668233   -0.002472
     15          1           0        3.840253    0.486473   -0.005931
     16          1           0        1.664351   -3.178367    0.000022
     17          1           0       -0.875039    1.776786   -0.007203
     18          1           0       -2.934972   -1.992218    0.010671
     19          1           0       -0.792905   -3.185507    0.009411
 ---------------------------------------------------------------------
 Rotational constants (GHZ):      1.1272636      0.5727627      0.3797929
 Standard basis: STO-3G (5D, 7F)
 There are    75 symmetry adapted cartesian basis functions of A   symmetry.
 There are    75 symmetry adapted basis functions of A   symmetry.
    75 basis functions,   225 primitive gaussians,    75 cartesian basis functions
    46 alpha electrons       46 beta electrons
       nuclear repulsion energy       709.0901718141 Hartrees.
 NAtoms=   19 NActive=   19 NUniq=   19 SFac= 1.00D+00 NAtFMM=   60 NAOKFM=F Big=F
 Integral buffers will be    131072 words long.
 Raffenetti 2 integral format.
 Two-electron integral symmetry is turned on.
 One-electron integrals computed using PRISM.
 NBasis=    75 RedAO= T EigKep=  1.55D-01  NBF=    75
 NBsUse=    75 1.00D-06 EigRej= -1.00D+00 NBFU=    75
 ExpMin= 1.69D-01 ExpMax= 9.91D+01 ExpMxC= 9.91D+01 IAcc=1 IRadAn=         1 AccDes= 0.00D+00
 Harris functional with IExCor=  402 and IRadAn=       1 diagonalized for initial guess.
 HarFok:  IExCor=  402 AccDes= 0.00D+00 IRadAn=         1 IDoV= 1 UseB2=F ITyADJ=14
 ICtDFT=  3500011 ScaDFX=  1.000000  1.000000  1.000000  1.000000
 FoFCou: FMM=F IPFlag=           0 FMFlag=      100000 FMFlg1=           0
         NFxFlg=           0 DoJE=T BraDBF=F KetDBF=T FulRan=T
         wScrn=  0.000000 ICntrl=     500 IOpCl=  0 I1Cent=   200000004 NGrid=           0
         NMat0=    1 NMatS0=      1 NMatT0=    0 NMatD0=    1 NMtDS0=    0 NMtDT0=    0
 Petite list used in FoFCou.
 Keep R1 ints in memory in canonical form, NReq=4993994.
 Requested convergence on RMS density matrix=1.00D-08 within 128 cycles.
 Requested convergence on MAX density matrix=1.00D-06.
 Requested convergence on             energy=1.00D-06.
 No special actions if energy rises.
 Integral accuracy reduced to 1.0D-05 until final iterations.
 EnCoef did     3 forward-backward iterations
 Initial convergence to 1.0D-05 achieved.  Increase integral accuracy.
 SCF Done:  E(RB3LYP) =  -562.480011336     A.U. after   24 cycles
            NFock= 24  Conv=0.81D-08     -V/T= 2.0128

 **********************************************************************

            Population analysis using the SCF density.

 **********************************************************************

 Orbital symmetries:
       Occupied  (A) (A) (A) (A) (A) (A) (A) (A) (A) (A) (A) (A)
                 (A) (A) (A) (A) (A) (A) (A) (A) (A) (A) (A) (A)
                 (A) (A) (A) (A) (A) (A) (A) (A) (A) (A) (A) (A)
                 (A) (A) (A) (A) (A) (A) (A) (A) (A) (A)
       Virtual   (A) (A) (A) (A) (A) (A) (A) (A) (A) (A) (A) (A)
                 (A) (A) (A) (A) (A) (A) (A) (A) (A) (A) (A) (A)
                 (A) (A) (A) (A) (A)
 The electronic state is 1-A.
 Alpha  occ. eigenvalues --  -14.00248 -13.96532  -9.91136  -9.90880  -9.88791
 Alpha  occ. eigenvalues --   -9.88173  -9.87824  -9.87479  -9.87333  -9.87031
 Alpha  occ. eigenvalues --   -9.86342  -9.82386  -9.79649  -9.63904  -0.75375
 Alpha  occ. eigenvalues --   -0.72339  -0.69299  -0.63423  -0.59543  -0.55298
 Alpha  occ. eigenvalues --   -0.52460  -0.44882  -0.43910  -0.41466  -0.37153
 Alpha  occ. eigenvalues --   -0.31641  -0.30303  -0.27900  -0.26675  -0.24569
 Alpha  occ. eigenvalues --   -0.22584  -0.22145  -0.19990  -0.19035  -0.17650
 Alpha  occ. eigenvalues --   -0.15816  -0.15755  -0.15530  -0.13652  -0.12866
 Alpha  occ. eigenvalues --   -0.11164  -0.10554  -0.08449  -0.03129   0.01092
 Alpha  occ. eigenvalues --    0.15221
 Alpha virt. eigenvalues --    0.16688   0.20917   0.24218   0.26444   0.29615
 Alpha virt. eigenvalues --    0.31357   0.36633   0.39150   0.44253   0.48284
 Alpha virt. eigenvalues --    0.48545   0.52413   0.55185   0.56992   0.58664
 Alpha virt. eigenvalues --    0.61572   0.63554   0.65324   0.68434   0.73562
 Alpha virt. eigenvalues --    0.74902   0.78199   0.80303   0.85691   0.89011
 Alpha virt. eigenvalues --    0.97983   0.99260   1.13492   1.16659
          Condensed to atoms (all electrons):
               1          2          3          4          5          6
     1  N    6.600335   0.682005  -0.011435  -0.000240  -0.000002   0.000000
     2  C    0.682005   4.917197   0.421492  -0.031638   0.001150   0.000044
     3  C   -0.011435   0.421492   4.811684   0.481407  -0.028448  -0.013514
     4  C   -0.000240  -0.031638   0.481407   4.874983   0.460224  -0.028669
     5  C   -0.000002   0.001150  -0.028448   0.460224   5.437953   0.486840
     6  C    0.000000   0.000044  -0.013514  -0.028669   0.486840   4.898939
     7  C   -0.000002   0.000921  -0.030266  -0.012147  -0.027704   0.468995
     8  C   -0.000021  -0.030881   0.472806  -0.030734  -0.011866  -0.032329
     9  C   -0.000093  -0.004591  -0.027938   0.000706   0.000013   0.000977
    10  C    0.000000   0.000017   0.000792  -0.000007   0.000000   0.000046
    11  C    0.000000  -0.000001   0.000029   0.000000  -0.000015   0.000957
    12  C    0.000000  -0.000005   0.001009   0.000042   0.001092  -0.033327
    13  N    0.000000   0.000000   0.000000   0.000000   0.000000   0.000000
    14  C    0.000000   0.000000  -0.000006   0.000000   0.000000   0.000000
    15  H    0.000105  -0.003953  -0.033771   0.387573  -0.037805   0.002197
    16  H    0.000000   0.000002  -0.000035   0.002223  -0.037448   0.387147
    17  H   -0.000087   0.001402  -0.003438   0.000018   0.000000  -0.000020
    18  H    0.000000   0.000000   0.000001   0.000000   0.000000  -0.000021
    19  H    0.000000   0.000000  -0.000020   0.000001   0.000037  -0.004408
               7          8          9         10         11         12
     1  N   -0.000002  -0.000021  -0.000093   0.000000   0.000000   0.000000
     2  C    0.000921  -0.030881  -0.004591   0.000017  -0.000001  -0.000005
     3  C   -0.030266   0.472806  -0.027938   0.000792   0.000029   0.001009
     4  C   -0.012147  -0.030734   0.000706  -0.000007   0.000000   0.000042
     5  C   -0.027704  -0.011866   0.000013   0.000000  -0.000015   0.001092
     6  C    0.468995  -0.032329   0.000977   0.000046   0.000957  -0.033327
     7  C    4.804843   0.466854  -0.029149  -0.010213  -0.029181   0.473410
     8  C    0.466854   4.784250   0.487220  -0.027758  -0.009491  -0.028762
     9  C   -0.029149   0.487220   4.822580   0.505512  -0.031713  -0.012105
    10  C   -0.010213  -0.027758   0.505512   4.758001   0.480913  -0.031075
    11  C   -0.029181  -0.009491  -0.031713   0.480913   4.827970   0.521825
    12  C    0.473410  -0.028762  -0.012105  -0.031075   0.521825   4.833146
    13  N    0.000000  -0.000001  -0.000168  -0.011521  -0.000134  -0.000001
    14  C    0.000014   0.000916  -0.030614   0.429775  -0.032040   0.001039
    15  H   -0.000052   0.001143  -0.000019   0.000000   0.000000   0.000002
    16  H   -0.033297   0.001263  -0.000023  -0.000001   0.000009  -0.004069
    17  H    0.001401  -0.024053   0.387943  -0.026828   0.001448   0.000053
    18  H    0.001464   0.000032   0.001436  -0.025976   0.389751  -0.025612
    19  H   -0.025592   0.001371   0.000038   0.001497  -0.027795   0.390812
              13         14         15         16         17         18
     1  N    0.000000   0.000000   0.000105   0.000000  -0.000087   0.000000
     2  C    0.000000   0.000000  -0.003953   0.000002   0.001402   0.000000
     3  C    0.000000  -0.000006  -0.033771  -0.000035  -0.003438   0.000001
     4  C    0.000000   0.000000   0.387573   0.002223   0.000018   0.000000
     5  C    0.000000   0.000000  -0.037805  -0.037448   0.000000   0.000000
     6  C    0.000000   0.000000   0.002197   0.387147  -0.000020  -0.000021
     7  C    0.000000   0.000014  -0.000052  -0.033297   0.001401   0.001464
     8  C   -0.000001   0.000916   0.001143   0.001263  -0.024053   0.000032
     9  C   -0.000168  -0.030614  -0.000019  -0.000023   0.387943   0.001436
    10  C   -0.011521   0.429775   0.000000  -0.000001  -0.026828  -0.025976
    11  C   -0.000134  -0.032040   0.000000   0.000009   0.001448   0.389751
    12  C   -0.000001   0.001039   0.000002  -0.004069   0.000053  -0.025612
    13  N    6.572121   0.688382   0.000000   0.000000   0.000066   0.000061
    14  C    0.688382   4.889589   0.000000   0.000000  -0.003985  -0.003763
    15  H    0.000000   0.000000   0.643732  -0.000007  -0.000001   0.000000
    16  H    0.000000   0.000000  -0.000007   0.656908   0.000001   0.000000
    17  H    0.000066  -0.003985  -0.000001   0.000001   0.587639  -0.000039
    18  H    0.000061  -0.003763   0.000000   0.000000  -0.000039   0.605688
    19  H    0.000000  -0.000021   0.000000   0.001313   0.000002  -0.004015
              19
     1  N    0.000000
     2  C    0.000000
     3  C   -0.000020
     4  C    0.000001
     5  C    0.000037
     6  C   -0.004408
     7  C   -0.025592
     8  C    0.001371
     9  C    0.000038
    10  C    0.001497
    11  C   -0.027795
    12  C    0.390812
    13  N    0.000000
    14  C   -0.000021
    15  H    0.000000
    16  H    0.001313
    17  H    0.000002
    18  H   -0.004015
    19  H    0.605874
 Mulliken charges:
               1
     1  N   -0.270566
     2  C    0.046838
     3  C   -0.040350
     4  C   -0.103743
     5  C   -0.244025
     6  C   -0.133855
     7  C   -0.020300
     8  C   -0.019960
     9  C   -0.070011
    10  C   -0.043176
    11  C   -0.092534
    12  C   -0.087473
    13  N   -0.248805
    14  C    0.060714
    15  H    0.040856
    16  H    0.026015
    17  H    0.078477
    18  H    0.060992
    19  H    0.060905
 Sum of Mulliken charges =  -1.00000
 Mulliken charges with hydrogens summed into heavy atoms:
               1
     1  N   -0.270566
     2  C    0.046838
     3  C   -0.040350
     4  C   -0.062887
     5  C   -0.244025
     6  C   -0.107839
     7  C   -0.020300
     8  C   -0.019960
     9  C    0.008466
    10  C   -0.043176
    11  C   -0.031542
    12  C   -0.026568
    13  N   -0.248805
    14  C    0.060714
 Electronic spatial extent (au):  <R**2>=           2692.9607
 Charge=             -1.0000 electrons
 Dipole moment (field-independent basis, Debye):
    X=             -3.8386    Y=             -1.6079    Z=              0.0059  Tot=              4.1617
 Quadrupole moment (field-independent basis, Debye-Ang):
   XX=           -122.8795   YY=            -98.0429   ZZ=            -73.8124
   XY=             11.3669   XZ=             -0.0211   YZ=             -0.0683
 Traceless Quadrupole moment (field-independent basis, Debye-Ang):
   XX=            -24.6346   YY=              0.2020   ZZ=             24.4326
   XY=             11.3669   XZ=             -0.0211   YZ=             -0.0683
 Octapole moment (field-independent basis, Debye-Ang**2):
  XXX=             27.6204  YYY=            -49.7840  ZZZ=              0.0038  XYY=            -46.9641
  XXY=            -10.2034  XXZ=              0.2949  XZZ=             -2.0667  YZZ=              4.8563
  YYZ=             -0.1156  XYZ=             -0.1993
 Hexadecapole moment (field-independent basis, Debye-Ang**3):
 XXXX=          -2999.9053 YYYY=          -1412.4931 ZZZZ=            -57.9840 XXXY=            306.5391
 XXXZ=             -0.4517 YYYX=            -60.9659 YYYZ=             -0.8484 ZZZX=              0.1176
 ZZZY=              0.0560 XXYY=           -737.3042 XXZZ=           -376.3787 YYZZ=           -206.4420
 XXYZ=             -0.1939 YYXZ=             -0.3103 ZZXY=              0.8046
 N-N= 7.090901718141D+02 E-N=-2.740048229603D+03  KE= 5.553541239184D+02
 Calling FoFJK, ICntrl=      2127 FMM=F ISym2X=0 I1Cent= 0 IOpClX= 0 NMat=1 NMatS=1 NMatT=0.
 ***** Axes restored to original set *****
 -------------------------------------------------------------------
 Center     Atomic                   Forces (Hartrees/Bohr)
 Number     Number              X              Y              Z
 -------------------------------------------------------------------
      1        7           0.059813747    0.084660313   -0.029277558
      2        6          -0.057803566   -0.063325163    0.017161164
      3        6           0.034129496    0.012787211    0.004175938
      4        6          -0.023702661    0.010219962   -0.014234250
      5        6           0.019363203   -0.070888227    0.048899870
      6        6           0.033655990    0.012813305    0.003961932
      7        6          -0.013872223   -0.025615341    0.010534084
      8        6          -0.009798049    0.020951447   -0.015902405
      9        6           0.002727004    0.006956864   -0.003224651
     10        6           0.020933804    0.019438230   -0.004488863
     11        6          -0.013549110   -0.044805920    0.022305222
     12        6          -0.038541126    0.018240432   -0.024230648
     13        7          -0.052131930    0.068246898   -0.059292438
     14        6           0.041968676   -0.052896399    0.046542888
     15        1           0.014307870    0.011152730   -0.001709023
     16        1          -0.015757654   -0.007209974   -0.001056572
     17        1           0.005375678    0.004720257   -0.000923179
     18        1          -0.006696343    0.001152076   -0.003038543
     19        1          -0.000422807   -0.006598700    0.003797032
 -------------------------------------------------------------------
 Cartesian Forces:  Max     0.084660313 RMS     0.031546672

 GradGradGradGradGradGradGradGradGradGradGradGradGradGradGradGradGradGrad
 Berny optimization.
 FormGI is forming the generalized inverse of G from B-inverse, IUseBI=4.
 Internal  Forces:  Max     0.107614384 RMS     0.021078087
 Search for a local minimum.
 Step number   1 out of a maximum of  102
 All quantities printed in internal units (Hartrees-Bohrs-Radians)
 Mixed Optimization -- RFO/linear search
 Second derivative matrix not updated -- first step.
 ITU=  0
     Eigenvalues ---    0.01608   0.01608   0.01866   0.01878   0.01929
     Eigenvalues ---    0.01950   0.01972   0.02029   0.02037   0.02088
     Eigenvalues ---    0.02098   0.02123   0.02127   0.02141   0.02167
     Eigenvalues ---    0.02187   0.04867   0.04867   0.16000   0.16000
     Eigenvalues ---    0.16000   0.16000   0.16000   0.22411   0.23242
     Eigenvalues ---    0.23497   0.23534   0.24625   0.25000   0.25000
     Eigenvalues ---    0.25000   0.34697   0.34894   0.34904   0.35029
     Eigenvalues ---    0.35035   0.38419   0.40096   0.40270   0.40428
     Eigenvalues ---    0.40729   0.43025   0.43565   0.45243   0.45249
     Eigenvalues ---    0.45285   0.46070   0.46449   0.47191   1.27402
     Eigenvalues ---    1.27798
 RFO step:  Lambda=-6.20435700D-02 EMin= 1.60846959D-02
 Linear search not attempted -- first point.
 Maximum step size (   0.300) exceeded in Quadratic search.
    -- Step size scaled by   0.789
 Iteration  1 RMS(Cart)=  0.04346778 RMS(Int)=  0.00119367
 Iteration  2 RMS(Cart)=  0.00173989 RMS(Int)=  0.00017595
 Iteration  3 RMS(Cart)=  0.00000262 RMS(Int)=  0.00017594
 Iteration  4 RMS(Cart)=  0.00000000 RMS(Int)=  0.00017594
 Variable       Old X    -DE/DX   Delta X   Delta X   Delta X     New X
                                 (Linear)    (Quad)   (Total)
    R1        2.19322   0.10761   0.00000   0.06355   0.06355   2.25677
    R2        2.71423   0.02167   0.00000   0.03693   0.03693   2.75116
    R3        2.64877   0.02358   0.00000   0.03576   0.03569   2.68447
    R4        2.68477   0.02448   0.00000   0.03926   0.03891   2.72367
    R5        2.62272   0.05409   0.00000   0.07933   0.07959   2.70231
    R6        2.05619   0.01458   0.00000   0.02790   0.02790   2.08409
    R7        2.62839   0.02392   0.00000   0.03583   0.03618   2.66457
    R8        2.65102   0.04011   0.00000   0.06197   0.06206   2.71308
    R9        2.05627   0.01287   0.00000   0.02463   0.02463   2.08090
   R10        2.68045   0.03631   0.00000   0.05842   0.05816   2.73861
   R11        2.65281   0.03995   0.00000   0.06190   0.06196   2.71476
   R12        2.68008   0.00930   0.00000   0.01463   0.01458   2.69466
   R13        2.64724   0.01055   0.00000   0.01579   0.01573   2.66297
   R14        2.06170   0.00660   0.00000   0.01274   0.01274   2.07444
   R15        2.63167   0.04652   0.00000   0.06919   0.06917   2.70084
   R16        2.70976   0.02237   0.00000   0.03785   0.03785   2.74760
   R17        2.63758  -0.00564   0.00000  -0.00813  -0.00808   2.62950
   R18        2.05831   0.00691   0.00000   0.01326   0.01326   2.07157
   R19        2.05848   0.00680   0.00000   0.01305   0.01305   2.07153
   R20        2.19207   0.10436   0.00000   0.06145   0.06145   2.25352
    A1        2.05514   0.01369   0.00000   0.03647   0.03673   2.09187
    A2        2.12079  -0.00786   0.00000  -0.01804  -0.01778   2.10301
    A3        2.10725  -0.00583   0.00000  -0.01843  -0.01895   2.08830
    A4        2.09803   0.02938   0.00000   0.07929   0.07944   2.17747
    A5        2.11055  -0.02592   0.00000  -0.07956  -0.07963   2.03092
    A6        2.07460  -0.00346   0.00000   0.00027   0.00019   2.07479
    A7        2.09429  -0.04090   0.00000  -0.10533  -0.10440   1.98989
    A8        2.11188   0.02414   0.00000   0.06644   0.06682   2.17870
    A9        2.06207  -0.00009   0.00000   0.00935   0.00916   2.07123
   A10        2.10923  -0.02405   0.00000  -0.07578  -0.07598   2.03326
   A11        2.09233  -0.00384   0.00000  -0.01170  -0.01197   2.08036
   A12        2.09570   0.01570   0.00000   0.04077   0.04091   2.13661
   A13        2.09516  -0.01186   0.00000  -0.02907  -0.02894   2.06622
   A14        2.06259  -0.00295   0.00000  -0.01026  -0.01094   2.05165
   A15        2.16430  -0.00428   0.00000  -0.00848  -0.00805   2.15625
   A16        2.05630   0.00723   0.00000   0.01874   0.01899   2.07529
   A17        2.12118  -0.00050   0.00000  -0.00330  -0.00349   2.11768
   A18        2.09881  -0.00275   0.00000  -0.00899  -0.00889   2.08992
   A19        2.06320   0.00324   0.00000   0.01229   0.01239   2.07559
   A20        2.08882   0.00078   0.00000   0.00087   0.00071   2.08953
   A21        2.09870  -0.00156   0.00000  -0.00338  -0.00330   2.09540
   A22        2.09566   0.00078   0.00000   0.00252   0.00259   2.09826
   A23        2.09373  -0.00040   0.00000  -0.00111  -0.00116   2.09257
   A24        2.10556  -0.00264   0.00000  -0.00955  -0.00953   2.09604
   A25        2.08389   0.00305   0.00000   0.01066   0.01068   2.09457
   A26        2.11118   0.00475   0.00000   0.01387   0.01390   2.12508
   A27        2.10188  -0.00593   0.00000  -0.01955  -0.01957   2.08232
   A28        2.07012   0.00117   0.00000   0.00568   0.00567   2.07579
   A29        3.13936   0.01014   0.00000   0.10238   0.10238   3.24174
   A30        3.14630   0.00059   0.00000   0.00422   0.00422   3.15052
   A31        3.14322  -0.00009   0.00000  -0.00095  -0.00095   3.14227
   A32        3.14085   0.00004   0.00000   0.00032   0.00032   3.14117
    D1        3.13768   0.00008   0.00000   0.00082   0.00082   3.13850
    D2       -0.00305   0.00004   0.00000   0.00045   0.00046  -0.00259
    D3       -0.00134   0.00003   0.00000   0.00021   0.00021  -0.00113
    D4        3.14111  -0.00001   0.00000  -0.00016  -0.00015   3.14096
    D5       -3.13571  -0.00013   0.00000  -0.00121  -0.00120  -3.13691
    D6        0.00588  -0.00012   0.00000  -0.00103  -0.00103   0.00485
    D7        0.00322  -0.00005   0.00000  -0.00050  -0.00051   0.00271
    D8       -3.13838  -0.00003   0.00000  -0.00033  -0.00033  -3.13872
    D9       -0.00104   0.00001   0.00000   0.00009   0.00009  -0.00095
   D10        3.13971   0.00004   0.00000   0.00041   0.00042   3.14014
   D11        0.00146  -0.00001   0.00000  -0.00003  -0.00003   0.00144
   D12       -3.14027  -0.00001   0.00000  -0.00002  -0.00002  -3.14028
   D13        0.00049  -0.00005   0.00000  -0.00034  -0.00034   0.00015
   D14       -3.14068  -0.00006   0.00000  -0.00044  -0.00044  -3.14112
   D15       -3.14096  -0.00004   0.00000  -0.00036  -0.00036  -3.14132
   D16        0.00105  -0.00005   0.00000  -0.00045  -0.00045   0.00060
   D17       -0.00278   0.00004   0.00000   0.00052   0.00052  -0.00226
   D18        3.13882   0.00002   0.00000   0.00036   0.00036   3.13918
   D19        3.13840   0.00006   0.00000   0.00063   0.00063   3.13903
   D20       -0.00319   0.00004   0.00000   0.00047   0.00047  -0.00272
   D21       -3.14026  -0.00002   0.00000  -0.00017  -0.00017  -3.14043
   D22        0.00163  -0.00003   0.00000  -0.00022  -0.00022   0.00141
   D23        0.00175  -0.00003   0.00000  -0.00027  -0.00027   0.00148
   D24       -3.13955  -0.00004   0.00000  -0.00032  -0.00032  -3.13986
   D25       -3.13952  -0.00004   0.00000  -0.00044  -0.00044  -3.13996
   D26        0.00274  -0.00006   0.00000  -0.00060  -0.00060   0.00214
   D27        0.00206  -0.00002   0.00000  -0.00026  -0.00027   0.00179
   D28       -3.13886  -0.00004   0.00000  -0.00042  -0.00043  -3.13929
   D29        0.00058  -0.00001   0.00000  -0.00012  -0.00012   0.00046
   D30       -3.14028  -0.00003   0.00000  -0.00022  -0.00022  -3.14051
   D31        3.14151   0.00001   0.00000   0.00003   0.00003   3.14154
   D32        0.00065  -0.00001   0.00000  -0.00007  -0.00007   0.00058
   D33       -0.00211   0.00003   0.00000   0.00035   0.00035  -0.00176
   D34        3.13963   0.00002   0.00000   0.00023   0.00023   3.13987
   D35        3.13875   0.00005   0.00000   0.00045   0.00045   3.13921
   D36       -0.00269   0.00003   0.00000   0.00033   0.00033  -0.00236
   D37        0.00096  -0.00003   0.00000  -0.00020  -0.00020   0.00076
   D38       -3.14092  -0.00002   0.00000  -0.00015  -0.00015  -3.14107
   D39       -3.14078  -0.00002   0.00000  -0.00008  -0.00008  -3.14086
   D40        0.00052  -0.00001   0.00000  -0.00003  -0.00003   0.00049
         Item               Value     Threshold  Converged?
 Maximum Force            0.107614     0.000450     NO 
 RMS     Force            0.021078     0.000300     NO 
 Maximum Displacement     0.174456     0.001800     NO 
 RMS     Displacement     0.043261     0.001200     NO 
 Predicted change in Energy=-3.243006D-02
 GradGradGradGradGradGradGradGradGradGradGradGradGradGradGradGradGradGrad

                          Input orientation:                          
 ---------------------------------------------------------------------
 Center     Atomic      Atomic             Coordinates (Angstroms)
 Number     Number       Type             X           Y           Z
 ---------------------------------------------------------------------
      1          7           0       11.167988    6.007945   -0.157168
      2          6           0       10.469195    5.088067    0.145650
      3          6           0        9.731653    3.913293    0.587737
      4          6           0       10.375082    2.936200    1.393513
      5          6           0        9.751653    1.747956    1.887799
      6          6           0        8.401365    1.607396    1.506818
      7          6           0        7.676289    2.544516    0.696070
      8          6           0        8.350680    3.734047    0.216055
      9          6           0        7.625501    4.659147   -0.591193
     10          6           0        6.274389    4.438223   -0.925096
     11          6           0        5.609319    3.266200   -0.448936
     12          6           0        6.298534    2.349457    0.338947
     13          7           0        4.968849    6.181343   -2.428694
     14          6           0        5.561867    5.399328   -1.751301
     15          1           0       11.431742    3.127357    1.644932
     16          1           0        7.846105    0.719399    1.846981
     17          1           0        8.123454    5.563635   -0.964008
     18          1           0        4.557906    3.089053   -0.703631
     19          1           0        5.773208    1.455709    0.695206
 ---------------------------------------------------------------------
                    Distance matrix (angstroms):
                    1          2          3          4          5
     1  N    0.000000
     2  C    1.194231   0.000000
     3  C    2.646792   1.455851   0.000000
     4  C    3.531137   2.489287   1.420558   0.000000
     5  C    4.933092   3.834878   2.525717   1.430002   0.000000
     6  C    5.457828   4.271272   2.816298   2.382040   1.410029
     7  C    4.991525   3.817452   2.471803   2.814840   2.522273
     8  C    3.639661   2.515240   1.441306   2.474100   2.949917
     9  C    3.815344   2.968755   2.526273   3.803656   4.375038
    10  C    5.196254   4.377807   3.810104   4.944463   5.219319
    11  C    6.204925   5.224091   4.299658   5.120158   4.992427
    12  C    6.110830   4.993171   3.780712   4.251426   3.832072
    13  N    6.604484   6.170599   6.076776   7.373437   7.820629
    14  C    5.860057   5.270405   5.006647   6.254910   6.643032
    15  H    3.408067   2.649289   2.150735   1.102852   2.187334
    16  H    6.558982   5.372186   3.916880   3.393459   2.165805
    17  H    3.180816   2.638182   2.778101   4.187021   5.034207
    18  H    7.246498   6.297672   5.395801   6.185541   5.957270
    19  H    7.110067   5.962242   4.660532   4.884335   4.163618
                    6          7          8          9         10
     6  C    0.000000
     7  C    1.435702   0.000000
     8  C    2.488229   1.449208   0.000000
     9  C    3.783755   2.476145   1.425954   0.000000
    10  C    4.295558   2.860006   2.471655   1.409185   0.000000
    11  C    3.791059   2.470675   2.859398   2.454695   1.429225
    12  C    2.517235   1.436591   2.478607   2.821466   2.441584
    13  N    6.942003   5.506441   4.941734   3.570894   2.646451
    14  C    5.749507   4.313973   3.797516   2.480384   1.453968
    15  H    3.393014   3.917074   3.450030   4.672699   5.909460
    16  H    1.101165   2.164367   3.464480   4.638424   4.897383
    17  H    4.672691   3.474319   2.188966   1.097746   2.164973
    18  H    4.674780   3.461213   3.955626   3.447894   2.194452
    19  H    2.754801   2.192537   3.473294   3.917630   3.431028
                   11         12         13         14         15
    11  C    0.000000
    12  C    1.391472   0.000000
    13  N    3.581578   4.910320   0.000000
    14  C    2.499728   3.770083   1.192509   0.000000
    15  H    6.189037   5.353555   8.227408   7.152041   0.000000
    16  H    4.093976   2.706701   7.509516   6.329859   4.323873
    17  H    3.444471   3.919051   3.532478   2.684876   4.866907
    18  H    1.096230   2.159573   3.564684   2.728172   7.264079
    19  H    2.147976   1.096209   5.721657   4.645664   5.976236
                   16         17         18         19
    16  H    0.000000
    17  H    5.607602   0.000000
    18  H    4.788855   4.347929   0.000000
    19  H    2.483070   5.015147   2.470125   0.000000
 Stoichiometry    C12H5N2(1-)
 Framework group  C1[X(C12H5N2)]
 Deg. of freedom    51
 Full point group                 C1      NOp   1
 Largest Abelian subgroup         C1      NOp   1
 Largest concise Abelian subgroup C1      NOp   1
                         Standard orientation:                         
 ---------------------------------------------------------------------
 Center     Atomic      Atomic             Coordinates (Angstroms)
 Number     Number       Type             X           Y           Z
 ---------------------------------------------------------------------
      1          7           0        1.876124    3.360488    0.006537
      2          6           0        1.721423    2.176327    0.002355
      3          6           0        1.678108    0.721127   -0.001716
      4          6           0        2.888553   -0.022381   -0.003974
      5          6           0        2.968371   -1.450154   -0.004356
      6          6           0        1.714407   -2.094938   -0.001035
      7          6           0        0.446262   -1.421852    0.000784
      8          6           0        0.414948    0.027016   -0.001025
      9          6           0       -0.847962    0.689135   -0.002215
     10          6           0       -2.055887   -0.036614    0.000491
     11          6           0       -2.024024   -1.465477    0.005086
     12          6           0       -0.802549   -2.131957    0.004741
     13          7           0       -4.376918    1.234799   -0.004789
     14          6           0       -3.328247    0.667031   -0.002179
     15          1           0        3.823041    0.563293   -0.005030
     16          1           0        1.686339   -3.195744    0.000177
     17          1           0       -0.887734    1.786155   -0.005786
     18          1           0       -2.959993   -2.036150    0.008847
     19          1           0       -0.796508   -3.228145    0.007806
 ---------------------------------------------------------------------
 Rotational constants (GHZ):      1.0882919      0.5556409      0.3678384
 Standard basis: STO-3G (5D, 7F)
 There are    75 symmetry adapted cartesian basis functions of A   symmetry.
 There are    75 symmetry adapted basis functions of A   symmetry.
    75 basis functions,   225 primitive gaussians,    75 cartesian basis functions
    46 alpha electrons       46 beta electrons
       nuclear repulsion energy       697.8565526750 Hartrees.
 NAtoms=   19 NActive=   19 NUniq=   19 SFac= 1.00D+00 NAtFMM=   60 NAOKFM=F Big=F
 Integral buffers will be    131072 words long.
 Raffenetti 2 integral format.
 Two-electron integral symmetry is turned on.
 One-electron integrals computed using PRISM.
 NBasis=    75 RedAO= T EigKep=  1.72D-01  NBF=    75
 NBsUse=    75 1.00D-06 EigRej= -1.00D+00 NBFU=    75
 Initial guess from the checkpoint file:  "/tmp/bnp.472814.sequoia/Gau-11912.chk"
 B after Tr=     0.000000    0.000000    0.000000
         Rot=    0.999996    0.000002   -0.000002   -0.002673 Ang=   0.31 deg.
 ExpMin= 1.69D-01 ExpMax= 9.91D+01 ExpMxC= 9.91D+01 IAcc=1 IRadAn=         1 AccDes= 0.00D+00
 Harris functional with IExCor=  402 and IRadAn=       1 diagonalized for initial guess.
 HarFok:  IExCor=  402 AccDes= 0.00D+00 IRadAn=         1 IDoV= 1 UseB2=F ITyADJ=14
 ICtDFT=  3500011 ScaDFX=  1.000000  1.000000  1.000000  1.000000
 FoFCou: FMM=F IPFlag=           0 FMFlag=      100000 FMFlg1=           0
         NFxFlg=           0 DoJE=T BraDBF=F KetDBF=T FulRan=T
         wScrn=  0.000000 ICntrl=     500 IOpCl=  0 I1Cent=   200000004 NGrid=           0
         NMat0=    1 NMatS0=      1 NMatT0=    0 NMatD0=    1 NMtDS0=    0 NMtDT0=    0
 Petite list used in FoFCou.
 Keep R1 ints in memory in canonical form, NReq=4993994.
 Requested convergence on RMS density matrix=1.00D-08 within 128 cycles.
 Requested convergence on MAX density matrix=1.00D-06.
 Requested convergence on             energy=1.00D-06.
 No special actions if energy rises.
 Integral accuracy reduced to 1.0D-05 until final iterations.
 Initial convergence to 1.0D-05 achieved.  Increase integral accuracy.
 SCF Done:  E(RB3LYP) =  -562.510314215     A.U. after   20 cycles
            NFock= 20  Conv=0.63D-08     -V/T= 2.0139
 Calling FoFJK, ICntrl=      2127 FMM=F ISym2X=0 I1Cent= 0 IOpClX= 0 NMat=1 NMatS=1 NMatT=0.
 ***** Axes restored to original set *****
 -------------------------------------------------------------------
 Center     Atomic                   Forces (Hartrees/Bohr)
 Number     Number              X              Y              Z
 -------------------------------------------------------------------
      1        7           0.009848012    0.014169684   -0.004999328
      2        6          -0.008828954   -0.010511444    0.003057481
      3        6           0.014792947    0.000294832    0.004994286
      4        6          -0.012212389    0.012937800   -0.011926811
      5        6           0.009941142   -0.029140219    0.020821520
      6        6           0.007223450    0.012500510   -0.004976596
      7        6          -0.002904954   -0.011422215    0.005809384
      8        6          -0.007750151    0.003648932   -0.004837629
      9        6          -0.002901918    0.000724894   -0.001414579
     10        6           0.008266214    0.006784796   -0.001246465
     11        6          -0.001152335   -0.015564271    0.008965433
     12        6          -0.010197745    0.010142430   -0.009622568
     13        7          -0.008771806    0.011642456   -0.010052728
     14        6           0.006126886   -0.009019720    0.007590256
     15        1           0.002926408    0.003676689   -0.001189881
     16        1          -0.005959023   -0.000893543   -0.001479844
     17        1           0.001891678    0.000664685    0.000305304
     18        1          -0.001219933    0.001645405   -0.001452160
     19        1           0.000882470   -0.002281702    0.001654924
 -------------------------------------------------------------------
 Cartesian Forces:  Max     0.029140219 RMS     0.008814672

 GradGradGradGradGradGradGradGradGradGradGradGradGradGradGradGradGradGrad
 Berny optimization.
 Using GEDIIS/GDIIS optimizer.
 FormGI is forming the generalized inverse of G from B-inverse, IUseBI=4.
 Internal  Forces:  Max     0.020930277 RMS     0.005194770
 Search for a local minimum.
 Step number   2 out of a maximum of  102
 All quantities printed in internal units (Hartrees-Bohrs-Radians)
 Mixed Optimization -- RFO/linear search
 Update second derivatives using D2CorX and points    1    2
 DE= -3.03D-02 DEPred=-3.24D-02 R= 9.34D-01
 TightC=F SS=  1.41D+00  RLast= 3.00D-01 DXNew= 5.0454D-01 8.9999D-01
 Trust test= 9.34D-01 RLast= 3.00D-01 DXMaxT set to 5.05D-01
 ITU=  1  0
 Use linear search instead of GDIIS.
     Eigenvalues ---    0.01608   0.01694   0.01866   0.01878   0.01931
     Eigenvalues ---    0.01953   0.01975   0.02035   0.02039   0.02089
     Eigenvalues ---    0.02103   0.02127   0.02128   0.02140   0.02167
     Eigenvalues ---    0.02180   0.04867   0.04867   0.15860   0.16000
     Eigenvalues ---    0.16000   0.16000   0.16068   0.22101   0.22422
     Eigenvalues ---    0.23478   0.23525   0.24563   0.24980   0.25000
     Eigenvalues ---    0.25151   0.34705   0.34890   0.34915   0.35029
     Eigenvalues ---    0.35096   0.38711   0.40178   0.40340   0.40554
     Eigenvalues ---    0.40858   0.43040   0.43335   0.44358   0.45257
     Eigenvalues ---    0.45305   0.46326   0.46993   0.49652   1.27603
     Eigenvalues ---    1.32472
 RFO step:  Lambda=-4.02736077D-03 EMin= 1.60846911D-02
 Quartic linear search produced a step of  0.38974.
 Iteration  1 RMS(Cart)=  0.04851447 RMS(Int)=  0.00437502
 Iteration  2 RMS(Cart)=  0.00465910 RMS(Int)=  0.00024096
 Iteration  3 RMS(Cart)=  0.00003214 RMS(Int)=  0.00024038
 Iteration  4 RMS(Cart)=  0.00000000 RMS(Int)=  0.00024038
 Variable       Old X    -DE/DX   Delta X   Delta X   Delta X     New X
                                 (Linear)    (Quad)   (Total)
    R1        2.25677   0.01795   0.02477  -0.00569   0.01907   2.27584
    R2        2.75116   0.00406   0.01439  -0.00147   0.01293   2.76409
    R3        2.68447  -0.00159   0.01391  -0.01935  -0.00551   2.67896
    R4        2.72367   0.00767   0.01516   0.00813   0.02282   2.74649
    R5        2.70231   0.02093   0.03102   0.02848   0.05985   2.76216
    R6        2.08409   0.00317   0.01087   0.00068   0.01156   2.09565
    R7        2.66457   0.01013   0.01410   0.01525   0.02981   2.69438
    R8        2.71308   0.00443   0.02419  -0.01234   0.01196   2.72504
    R9        2.08090   0.00327   0.00960   0.00244   0.01204   2.09294
   R10        2.73861   0.00519   0.02267  -0.00860   0.01366   2.75227
   R11        2.71476   0.00770   0.02415  -0.00224   0.02193   2.73670
   R12        2.69466   0.00116   0.00568  -0.00246   0.00318   2.69784
   R13        2.66297  -0.00129   0.00613  -0.01025  -0.00414   2.65883
   R14        2.07444   0.00130   0.00496  -0.00022   0.00475   2.07919
   R15        2.70084   0.01114   0.02696   0.00449   0.03148   2.73232
   R16        2.74760   0.00443   0.01475  -0.00070   0.01405   2.76165
   R17        2.62950  -0.00587  -0.00315  -0.01400  -0.01709   2.61241
   R18        2.07157   0.00124   0.00517  -0.00070   0.00447   2.07604
   R19        2.07153   0.00198   0.00509   0.00228   0.00737   2.07890
   R20        2.25352   0.01771   0.02395  -0.00518   0.01877   2.27229
    A1        2.09187   0.00328   0.01431   0.00364   0.01830   2.11017
    A2        2.10301  -0.00229  -0.00693  -0.00316  -0.00974   2.09327
    A3        2.08830  -0.00098  -0.00738  -0.00047  -0.00856   2.07974
    A4        2.17747   0.01103   0.03096   0.03234   0.06350   2.24097
    A5        2.03092  -0.00934  -0.03103  -0.03019  -0.06132   1.96960
    A6        2.07479  -0.00169   0.00008  -0.00215  -0.00218   2.07262
    A7        1.98989  -0.01872  -0.04069  -0.05743  -0.09680   1.89309
    A8        2.17870   0.01115   0.02604   0.03723   0.06375   2.24245
    A9        2.07123  -0.00009   0.00357   0.00826   0.01159   2.08282
   A10        2.03326  -0.01106  -0.02961  -0.04549  -0.07534   1.95792
   A11        2.08036  -0.00047  -0.00467  -0.00104  -0.00606   2.07430
   A12        2.13661   0.00452   0.01594   0.01023   0.02644   2.16305
   A13        2.06622  -0.00405  -0.01128  -0.00919  -0.02038   2.04584
   A14        2.05165  -0.00201  -0.00426  -0.01062  -0.01582   2.03583
   A15        2.15625  -0.00085  -0.00314   0.00237  -0.00015   2.15610
   A16        2.07529   0.00286   0.00740   0.00825   0.01597   2.09126
   A17        2.11768  -0.00044  -0.00136  -0.00218  -0.00374   2.11394
   A18        2.08992  -0.00139  -0.00347  -0.00766  -0.01102   2.07889
   A19        2.07559   0.00183   0.00483   0.00984   0.01477   2.09035
   A20        2.08953  -0.00058   0.00028  -0.00355  -0.00340   2.08613
   A21        2.09540   0.00103  -0.00129   0.00710   0.00587   2.10127
   A22        2.09826  -0.00045   0.00101  -0.00355  -0.00247   2.09578
   A23        2.09257   0.00013  -0.00045   0.00110   0.00061   2.09318
   A24        2.09604  -0.00232  -0.00371  -0.01503  -0.01872   2.07732
   A25        2.09457   0.00219   0.00416   0.01393   0.01811   2.11269
   A26        2.12508   0.00208   0.00542   0.00558   0.01095   2.13603
   A27        2.08232  -0.00332  -0.00763  -0.01627  -0.02387   2.05845
   A28        2.07579   0.00123   0.00221   0.01069   0.01292   2.08871
   A29        3.24174  -0.00196   0.03990  -0.23636  -0.19646   3.04528
   A30        3.15052  -0.00009   0.00165  -0.00508  -0.00343   3.14710
   A31        3.14227  -0.00003  -0.00037  -0.00084  -0.00121   3.14106
   A32        3.14117   0.00002   0.00012   0.00031   0.00043   3.14160
    D1        3.13850   0.00005   0.00032   0.00244   0.00275   3.14126
    D2       -0.00259   0.00004   0.00018   0.00197   0.00216  -0.00043
    D3       -0.00113   0.00001   0.00008   0.00000   0.00005  -0.00108
    D4        3.14096  -0.00001  -0.00006  -0.00047  -0.00054   3.14041
    D5       -3.13691  -0.00009  -0.00047  -0.00441  -0.00487   3.14141
    D6        0.00485  -0.00008  -0.00040  -0.00382  -0.00422   0.00062
    D7        0.00271  -0.00004  -0.00020  -0.00194  -0.00216   0.00055
    D8       -3.13872  -0.00003  -0.00013  -0.00136  -0.00152  -3.14023
    D9       -0.00095   0.00003   0.00003   0.00137   0.00141   0.00046
   D10        3.14014   0.00004   0.00016   0.00185   0.00202  -3.14103
   D11        0.00144  -0.00001  -0.00001  -0.00075  -0.00074   0.00069
   D12       -3.14028  -0.00001  -0.00001  -0.00039  -0.00037  -3.14066
   D13        0.00015  -0.00003  -0.00013  -0.00117  -0.00130  -0.00115
   D14       -3.14112  -0.00003  -0.00017  -0.00121  -0.00138   3.14068
   D15       -3.14132  -0.00003  -0.00014  -0.00153  -0.00165   3.14022
   D16        0.00060  -0.00004  -0.00018  -0.00157  -0.00173  -0.00113
   D17       -0.00226   0.00004   0.00020   0.00248   0.00268   0.00042
   D18        3.13918   0.00003   0.00014   0.00192   0.00206   3.14124
   D19        3.13903   0.00005   0.00025   0.00252   0.00277  -3.14139
   D20       -0.00272   0.00004   0.00018   0.00196   0.00214  -0.00058
   D21       -3.14043  -0.00002  -0.00007  -0.00094  -0.00100  -3.14143
   D22        0.00141  -0.00002  -0.00009  -0.00107  -0.00115   0.00026
   D23        0.00148  -0.00002  -0.00010  -0.00099  -0.00108   0.00040
   D24       -3.13986  -0.00003  -0.00012  -0.00112  -0.00123  -3.14109
   D25       -3.13996  -0.00003  -0.00017  -0.00192  -0.00211   3.14111
   D26        0.00214  -0.00005  -0.00023  -0.00232  -0.00257  -0.00042
   D27        0.00179  -0.00002  -0.00010  -0.00133  -0.00144   0.00035
   D28       -3.13929  -0.00003  -0.00017  -0.00173  -0.00190  -3.14118
   D29        0.00046  -0.00001  -0.00005  -0.00033  -0.00038   0.00008
   D30       -3.14051  -0.00002  -0.00009  -0.00062  -0.00071  -3.14122
   D31        3.14154   0.00000   0.00001   0.00007   0.00007  -3.14157
   D32        0.00058  -0.00001  -0.00003  -0.00023  -0.00026   0.00032
   D33       -0.00176   0.00003   0.00014   0.00136   0.00150  -0.00026
   D34        3.13987   0.00002   0.00009   0.00101   0.00112   3.14099
   D35        3.13921   0.00004   0.00018   0.00166   0.00183   3.14103
   D36       -0.00236   0.00003   0.00013   0.00132   0.00145  -0.00090
   D37        0.00076  -0.00002  -0.00008  -0.00069  -0.00075   0.00001
   D38       -3.14107  -0.00001  -0.00006  -0.00056  -0.00061   3.14150
   D39       -3.14086  -0.00001  -0.00003  -0.00035  -0.00037  -3.14123
   D40        0.00049  -0.00001  -0.00001  -0.00022  -0.00022   0.00026
         Item               Value     Threshold  Converged?
 Maximum Force            0.020930     0.000450     NO 
 RMS     Force            0.005195     0.000300     NO 
 Maximum Displacement     0.307456     0.001800     NO 
 RMS     Displacement     0.049534     0.001200     NO 
 Predicted change in Energy=-4.387445D-03
 GradGradGradGradGradGradGradGradGradGradGradGradGradGradGradGradGradGrad

                          Input orientation:                          
 ---------------------------------------------------------------------
 Center     Atomic      Atomic             Coordinates (Angstroms)
 Number     Number       Type             X           Y           Z
 ---------------------------------------------------------------------
      1          7           0       11.005289    6.075874   -0.265634
      2          6           0       10.490086    5.072869    0.157381
      3          6           0        9.746824    3.895325    0.605064
      4          6           0       10.365773    2.906453    1.410510
      5          6           0        9.784253    1.676855    1.945684
      6          6           0        8.424932    1.598708    1.522532
      7          6           0        7.683746    2.529611    0.707966
      8          6           0        8.354576    3.727958    0.223029
      9          6           0        7.640606    4.663353   -0.585319
     10          6           0        6.292087    4.450046   -0.925356
     11          6           0        5.616095    3.264027   -0.448943
     12          6           0        6.296103    2.350219    0.334412
     13          7           0        4.982378    6.210436   -2.435889
     14          6           0        5.576560    5.417859   -1.754246
     15          1           0       11.426210    3.137996    1.637825
     16          1           0        7.809758    0.730790    1.830614
     17          1           0        8.158886    5.564519   -0.945675
     18          1           0        4.562979    3.106063   -0.718950
     19          1           0        5.777637    1.449308    0.694676
 ---------------------------------------------------------------------
                    Distance matrix (angstroms):
                    1          2          3          4          5
     1  N    0.000000
     2  C    1.204324   0.000000
     3  C    2.663953   1.462692   0.000000
     4  C    3.641932   2.505821   1.417642   0.000000
     5  C    5.072695   3.902452   2.592349   1.461673   0.000000
     6  C    5.468163   4.265945   2.804211   2.342992   1.425805
     7  C    4.955455   3.827120   2.476299   2.798008   2.582880
     8  C    3.574603   2.524579   1.453381   2.475863   3.036205
     9  C    3.663128   2.973019   2.538313   3.807435   4.463224
    10  C    5.029197   4.379888   3.819045   4.943062   5.303648
    11  C    6.081407   5.234055   4.309570   5.113206   5.062302
    12  C    6.034650   5.003364   3.790525   4.246128   3.900872
    13  N    6.403403   6.193057   6.107952   7.395406   7.925247
    14  C    5.667455   5.283566   5.027480   6.265732   6.737156
    15  H    3.525828   2.609938   2.111985   1.108968   2.219399
    16  H    6.570815   5.370057   3.907491   3.382782   2.192467
    17  H    2.970850   2.625442   2.777147   4.181778   5.110352
    18  H    7.108350   6.306099   5.408160   6.184405   6.033623
    19  H    7.046677   5.968756   4.663205   4.866897   4.203543
                    6          7          8          9         10
     6  C    0.000000
     7  C    1.442031   0.000000
     8  C    2.495468   1.456438   0.000000
     9  C    3.801348   2.495457   1.427635   0.000000
    10  C    4.321031   2.879675   2.468615   1.406993   0.000000
    11  C    3.814389   2.480522   2.857632   2.464825   1.445883
    12  C    2.551138   1.448198   2.479492   2.829167   2.448736
    13  N    6.984863   5.543437   4.960268   3.589464   2.663836
    14  C    5.782422   4.341048   3.805621   2.489168   1.461403
    15  H    3.374962   3.903947   3.432876   4.647567   5.886475
    16  H    1.107536   2.124141   3.444441   4.618484   4.871505
    17  H    4.678726   3.488689   2.185661   1.100258   2.174258
    18  H    4.712859   3.479594   3.956044   3.451782   2.199707
    19  H    2.777739   2.191001   3.472076   3.929266   3.448708
                   11         12         13         14         15
    11  C    0.000000
    12  C    1.382426   0.000000
    13  N    3.609831   4.929678   0.000000
    14  C    2.518804   3.780298   1.202443   0.000000
    15  H    6.174781   5.351399   8.219368   7.135988   0.000000
    16  H    4.052879   2.674382   7.498243   6.309280   4.348624
    17  H    3.464793   3.929415   3.567653   2.709926   4.820569
    18  H    1.098594   2.164392   3.572242   2.728294   7.256676
    19  H    2.151084   1.100108   5.753365   4.667660   5.970559
                   16         17         18         19
    16  H    0.000000
    17  H    5.585213   0.000000
    18  H    4.762748   4.361875   0.000000
    19  H    2.436419   5.029518   2.493705   0.000000
 Stoichiometry    C12H5N2(1-)
 Framework group  C1[X(C12H5N2)]
 Deg. of freedom    51
 Full point group                 C1      NOp   1
 Largest Abelian subgroup         C1      NOp   1
 Largest concise Abelian subgroup C1      NOp   1
                         Standard orientation:                         
 ---------------------------------------------------------------------
 Center     Atomic      Atomic             Coordinates (Angstroms)
 Number     Number       Type             X           Y           Z
 ---------------------------------------------------------------------
      1          7           0        1.532421    3.438608    0.000168
      2          6           0        1.660449    2.241108    0.000650
      3          6           0        1.675358    0.778493    0.000429
      4          6           0        2.899097    0.062832   -0.000994
      5          6           0        3.104496   -1.384338   -0.001035
      6          6           0        1.828982   -2.021506    0.000037
      7          6           0        0.521772   -1.412693    0.000244
      8          6           0        0.423336    0.040415    0.000733
      9          6           0       -0.860417    0.665012    0.000509
     10          6           0       -2.041284   -0.099959    0.000243
     11          6           0       -1.955310   -1.543283    0.000291
     12          6           0       -0.718362   -2.160586    0.000284
     13          7           0       -4.424655    1.089816   -0.001017
     14          6           0       -3.347196    0.556008   -0.000455
     15          1           0        3.786728    0.727602   -0.002303
     16          1           0        1.775021   -3.127726    0.001076
     17          1           0       -0.921203    1.763590    0.000491
     18          1           0       -2.882571   -2.132432    0.000665
     19          1           0       -0.657858   -3.259029    0.000404
 ---------------------------------------------------------------------
 Rotational constants (GHZ):      1.0796131      0.5562242      0.3670946
 Standard basis: STO-3G (5D, 7F)
 There are    75 symmetry adapted cartesian basis functions of A   symmetry.
 There are    75 symmetry adapted basis functions of A   symmetry.
    75 basis functions,   225 primitive gaussians,    75 cartesian basis functions
    46 alpha electrons       46 beta electrons
       nuclear repulsion energy       695.2972634143 Hartrees.
 NAtoms=   19 NActive=   19 NUniq=   19 SFac= 1.00D+00 NAtFMM=   60 NAOKFM=F Big=F
 Integral buffers will be    131072 words long.
 Raffenetti 2 integral format.
 Two-electron integral symmetry is turned on.
 One-electron integrals computed using PRISM.
 NBasis=    75 RedAO= T EigKep=  1.77D-01  NBF=    75
 NBsUse=    75 1.00D-06 EigRej= -1.00D+00 NBFU=    75
 Initial guess from the checkpoint file:  "/tmp/bnp.472814.sequoia/Gau-11912.chk"
 B after Tr=     0.000000    0.000000    0.000000
         Rot=    0.999768    0.000003    0.000013   -0.021544 Ang=   2.47 deg.
 ExpMin= 1.69D-01 ExpMax= 9.91D+01 ExpMxC= 9.91D+01 IAcc=1 IRadAn=         1 AccDes= 0.00D+00
 Harris functional with IExCor=  402 and IRadAn=       1 diagonalized for initial guess.
 HarFok:  IExCor=  402 AccDes= 0.00D+00 IRadAn=         1 IDoV= 1 UseB2=F ITyADJ=14
 ICtDFT=  3500011 ScaDFX=  1.000000  1.000000  1.000000  1.000000
 FoFCou: FMM=F IPFlag=           0 FMFlag=      100000 FMFlg1=           0
         NFxFlg=           0 DoJE=T BraDBF=F KetDBF=T FulRan=T
         wScrn=  0.000000 ICntrl=     500 IOpCl=  0 I1Cent=   200000004 NGrid=           0
         NMat0=    1 NMatS0=      1 NMatT0=    0 NMatD0=    1 NMtDS0=    0 NMtDT0=    0
 Petite list used in FoFCou.
 Keep R1 ints in memory in canonical form, NReq=4993994.
 Requested convergence on RMS density matrix=1.00D-08 within 128 cycles.
 Requested convergence on MAX density matrix=1.00D-06.
 Requested convergence on             energy=1.00D-06.
 No special actions if energy rises.
 Integral accuracy reduced to 1.0D-05 until final iterations.
 Initial convergence to 1.0D-05 achieved.  Increase integral accuracy.
 SCF Done:  E(RB3LYP) =  -562.513229466     A.U. after   19 cycles
            NFock= 19  Conv=0.73D-08     -V/T= 2.0141
 Calling FoFJK, ICntrl=      2127 FMM=F ISym2X=0 I1Cent= 0 IOpClX= 0 NMat=1 NMatS=1 NMatT=0.
 ***** Axes restored to original set *****
 -------------------------------------------------------------------
 Center     Atomic                   Forces (Hartrees/Bohr)
 Number     Number              X              Y              Z
 -------------------------------------------------------------------
      1        7           0.001956261   -0.007086533    0.004942088
      2        6          -0.008349848    0.007458844   -0.007373423
      3        6           0.006898629   -0.005490910    0.005716326
      4        6           0.002319560    0.009181067   -0.004760515
      5        6          -0.000841130   -0.003854123    0.002096517
      6        6          -0.006569219   -0.000289273   -0.002084390
      7        6           0.004204672    0.001978284    0.000253554
      8        6          -0.001992357    0.001493739   -0.001649893
      9        6          -0.000562930   -0.000069773   -0.000126672
     10        6           0.000056668    0.001103140   -0.000665245
     11        6           0.000026845    0.000802109   -0.000431838
     12        6           0.000710916   -0.001535918    0.001177347
     13        7           0.002548760   -0.003618789    0.003053278
     14        6          -0.002039733    0.002048317   -0.001917186
     15        1          -0.000330682   -0.001761210    0.000924882
     16        1           0.001305998   -0.000473780    0.000721658
     17        1          -0.000303193   -0.000591641    0.000247647
     18        1           0.000642926    0.000242960    0.000055667
     19        1           0.000317856    0.000463489   -0.000179798
 -------------------------------------------------------------------
 Cartesian Forces:  Max     0.009181067 RMS     0.003337550

 GradGradGradGradGradGradGradGradGradGradGradGradGradGradGradGradGradGrad
 Berny optimization.
 Using GEDIIS/GDIIS optimizer.
 FormGI is forming the generalized inverse of G from B-inverse, IUseBI=4.
 Internal  Forces:  Max     0.012912668 RMS     0.001968575
 Search for a local minimum.
 Step number   3 out of a maximum of  102
 All quantities printed in internal units (Hartrees-Bohrs-Radians)
 Mixed Optimization -- RFO/linear search
 Update second derivatives using D2CorX and points    1    2    3
 DE= -2.92D-03 DEPred=-4.39D-03 R= 6.64D-01
 TightC=F SS=  1.41D+00  RLast= 2.80D-01 DXNew= 8.4853D-01 8.4047D-01
 Trust test= 6.64D-01 RLast= 2.80D-01 DXMaxT set to 8.40D-01
 ITU=  1  1  0
 Use linear search instead of GDIIS.
     Eigenvalues ---    0.01608   0.01866   0.01877   0.01933   0.01955
     Eigenvalues ---    0.01977   0.02039   0.02040   0.02090   0.02106
     Eigenvalues ---    0.02127   0.02130   0.02140   0.02166   0.02174
     Eigenvalues ---    0.02431   0.04867   0.04868   0.15382   0.16000
     Eigenvalues ---    0.16000   0.16002   0.16275   0.18971   0.22411
     Eigenvalues ---    0.23460   0.23527   0.24502   0.24999   0.25094
     Eigenvalues ---    0.25441   0.34710   0.34859   0.34921   0.34943
     Eigenvalues ---    0.35040   0.38622   0.39911   0.40218   0.40333
     Eigenvalues ---    0.40716   0.41176   0.43039   0.43697   0.45255
     Eigenvalues ---    0.45309   0.46364   0.46906   0.49754   1.27605
     Eigenvalues ---    1.34033
 RFO step:  Lambda=-4.64915219D-03 EMin= 1.60847103D-02
 Quartic linear search produced a step of -0.26108.
 Iteration  1 RMS(Cart)=  0.04105458 RMS(Int)=  0.02294469
 Iteration  2 RMS(Cart)=  0.04412246 RMS(Int)=  0.00489488
 Iteration  3 RMS(Cart)=  0.00590893 RMS(Int)=  0.00005319
 Iteration  4 RMS(Cart)=  0.00008211 RMS(Int)=  0.00001331
 Iteration  5 RMS(Cart)=  0.00000002 RMS(Int)=  0.00001331
 Variable       Old X    -DE/DX   Delta X   Delta X   Delta X     New X
                                 (Linear)    (Quad)   (Total)
    R1        2.27584  -0.00680  -0.00498   0.00769   0.00271   2.27855
    R2        2.76409  -0.00220  -0.00337   0.00382   0.00045   2.76453
    R3        2.67896  -0.00344   0.00144  -0.01140  -0.00997   2.66899
    R4        2.74649   0.00038  -0.00596   0.01584   0.00990   2.75639
    R5        2.76216   0.00514  -0.01563   0.05024   0.03459   2.79675
    R6        2.09565  -0.00049  -0.00302   0.00633   0.00332   2.09896
    R7        2.69438   0.00141  -0.00778   0.02337   0.01556   2.70994
    R8        2.72504  -0.00239  -0.00312   0.00216  -0.00096   2.72408
    R9        2.09294  -0.00015  -0.00314   0.00759   0.00444   2.09738
   R10        2.75227  -0.00132  -0.00357   0.00490   0.00136   2.75363
   R11        2.73670  -0.00138  -0.00573   0.01141   0.00568   2.74238
   R12        2.69784  -0.00038  -0.00083   0.00103   0.00020   2.69804
   R13        2.65883  -0.00102   0.00108  -0.00546  -0.00438   2.65446
   R14        2.07919  -0.00071  -0.00124   0.00141   0.00017   2.07935
   R15        2.73232  -0.00100  -0.00822   0.01910   0.01088   2.74320
   R16        2.76165  -0.00193  -0.00367   0.00518   0.00151   2.76316
   R17        2.61241   0.00002   0.00446  -0.01238  -0.00792   2.60449
   R18        2.07604  -0.00066  -0.00117   0.00128   0.00012   2.07616
   R19        2.07890  -0.00059  -0.00192   0.00363   0.00170   2.08061
   R20        2.27229  -0.00538  -0.00490   0.00843   0.00353   2.27582
    A1        2.11017   0.00179  -0.00478   0.01769   0.01290   2.12306
    A2        2.09327  -0.00323   0.00254  -0.01625  -0.01372   2.07955
    A3        2.07974   0.00144   0.00223  -0.00144   0.00083   2.08057
    A4        2.24097  -0.00152  -0.01658   0.03911   0.02252   2.26348
    A5        1.96960   0.00281   0.01601  -0.02957  -0.01355   1.95605
    A6        2.07262  -0.00128   0.00057  -0.00954  -0.00896   2.06366
    A7        1.89309   0.00026   0.02527  -0.06411  -0.03891   1.85418
    A8        2.24245  -0.00158  -0.01664   0.03920   0.02254   2.26500
    A9        2.08282  -0.00084  -0.00303   0.00249  -0.00053   2.08229
   A10        1.95792   0.00242   0.01967  -0.04169  -0.02202   1.93590
   A11        2.07430   0.00235   0.00158   0.00261   0.00422   2.07852
   A12        2.16305  -0.00257  -0.00690   0.01049   0.00356   2.16662
   A13        2.04584   0.00022   0.00532  -0.01310  -0.00778   2.03805
   A14        2.03583  -0.00096   0.00413  -0.01539  -0.01120   2.02462
   A15        2.15610   0.00074   0.00004   0.00345   0.00345   2.15955
   A16        2.09126   0.00021  -0.00417   0.01194   0.00775   2.09901
   A17        2.11394  -0.00021   0.00098  -0.00356  -0.00257   2.11137
   A18        2.07889   0.00007   0.00288  -0.00736  -0.00449   2.07440
   A19        2.09035   0.00014  -0.00385   0.01092   0.00706   2.09741
   A20        2.08613  -0.00009   0.00089  -0.00276  -0.00187   2.08426
   A21        2.10127   0.00093  -0.00153   0.00735   0.00582   2.10709
   A22        2.09578  -0.00084   0.00065  -0.00459  -0.00395   2.09183
   A23        2.09318   0.00026  -0.00016   0.00153   0.00138   2.09456
   A24        2.07732  -0.00032   0.00489  -0.01472  -0.00983   2.06749
   A25        2.11269   0.00006  -0.00473   0.01319   0.00846   2.12114
   A26        2.13603  -0.00040  -0.00286   0.00595   0.00309   2.13912
   A27        2.05845   0.00015   0.00623  -0.01613  -0.00990   2.04855
   A28        2.08871   0.00025  -0.00337   0.01018   0.00681   2.09552
   A29        3.04528   0.01291   0.05129   0.35835   0.40964   3.45492
   A30        3.14710   0.00031   0.00090   0.00182   0.00271   3.14981
   A31        3.14106   0.00002   0.00032   0.00023   0.00054   3.14161
   A32        3.14160   0.00000  -0.00011   0.00022   0.00011   3.14171
    D1        3.14126  -0.00002  -0.00072   0.00080   0.00008   3.14133
    D2       -0.00043  -0.00001  -0.00056   0.00102   0.00045   0.00002
    D3       -0.00108  -0.00002  -0.00001  -0.00075  -0.00076  -0.00185
    D4        3.14041  -0.00001   0.00014  -0.00053  -0.00039   3.14003
    D5        3.14141   0.00001   0.00127  -0.00269  -0.00143   3.13998
    D6        0.00062   0.00000   0.00110  -0.00268  -0.00157  -0.00095
    D7        0.00055   0.00000   0.00056  -0.00118  -0.00062  -0.00006
    D8       -3.14023  -0.00001   0.00040  -0.00116  -0.00077  -3.14100
    D9        0.00046   0.00003  -0.00037   0.00170   0.00133   0.00179
   D10       -3.14103   0.00001  -0.00053   0.00147   0.00094  -3.14009
   D11        0.00069  -0.00001   0.00019  -0.00086  -0.00066   0.00003
   D12       -3.14066  -0.00002   0.00010  -0.00066  -0.00056  -3.14122
   D13       -0.00115   0.00000   0.00034  -0.00085  -0.00051  -0.00166
   D14        3.14068   0.00001   0.00036  -0.00062  -0.00026   3.14043
   D15        3.14022   0.00000   0.00043  -0.00103  -0.00060   3.13962
   D16       -0.00113   0.00001   0.00045  -0.00080  -0.00035  -0.00148
   D17        0.00042   0.00001  -0.00070   0.00185   0.00115   0.00158
   D18        3.14124   0.00002  -0.00054   0.00183   0.00130  -3.14065
[...]
 ! D14   D(5,6,7,12)           173.9864         -DE/DX =    0.0                 !
 ! D15   D(16,6,7,8)           162.815          -DE/DX =    0.0                 !
 ! D16   D(16,6,7,12)           -9.9785         -DE/DX =    0.0                 !
 ! D17   D(6,7,8,3)              9.3898         -DE/DX =    0.0                 !
 ! D18   D(6,7,8,9)           -171.8105         -DE/DX =    0.0                 !
 ! D19   D(12,7,8,3)          -177.394          -DE/DX =    0.0                 !
 ! D20   D(12,7,8,9)             1.4057         -DE/DX =    0.0                 !
 ! D21   D(6,7,12,11)          171.3621         -DE/DX =    0.0                 !
 ! D22   D(6,7,12,19)           -7.4276         -DE/DX =    0.0                 !
 ! D23   D(8,7,12,11)           -1.4427         -DE/DX =    0.0                 !
 ! D24   D(8,7,12,19)          179.7677         -DE/DX =    0.0                 !
 ! D25   D(3,8,9,10)           177.7768         -DE/DX =    0.0                 !
 ! D26   D(3,8,9,17)            -1.6666         -DE/DX =    0.0                 !
 ! D27   D(7,8,9,10)            -0.9506         -DE/DX =    0.0                 !
 ! D28   D(7,8,9,17)           179.606          -DE/DX =    0.0                 !
 ! D29   D(8,9,10,11)            0.4462         -DE/DX =    0.0                 !
 ! D30   D(8,9,10,14)         -179.6638         -DE/DX =    0.0                 !
 ! D31   D(17,9,10,11)         179.886          -DE/DX =    0.0                 !
 ! D32   D(17,9,10,14)          -0.2241         -DE/DX =    0.0                 !
 ! D33   D(9,10,11,12)          -0.4333         -DE/DX =    0.0                 !
 ! D34   D(9,10,11,18)         179.2437         -DE/DX =    0.0                 !
 ! D35   D(14,10,11,12)        179.6758         -DE/DX =    0.0                 !
 ! D36   D(14,10,11,18)         -0.6472         -DE/DX =    0.0                 !
 ! D37   D(10,11,12,7)           0.9607         -DE/DX =    0.0                 !
 ! D38   D(10,11,12,19)        179.733          -DE/DX =    0.0                 !
 ! D39   D(18,11,12,7)        -178.7098         -DE/DX =    0.0                 !
 ! D40   D(18,11,12,19)          0.0624         -DE/DX =    0.0                 !
 --------------------------------------------------------------------------------
 GradGradGradGradGradGradGradGradGradGradGradGradGradGradGradGradGradGrad

                          Input orientation:                          
 ---------------------------------------------------------------------
 Center     Atomic      Atomic             Coordinates (Angstroms)
 Number     Number       Type             X           Y           Z
 ---------------------------------------------------------------------
      1          7           0       11.080809    6.105872   -0.078580
      2          6           0       10.448254    5.133030    0.235553
      3          6           0        9.744401    3.920125    0.616701
      4          6           0       10.410592    2.850758    1.276091
      5          6           0        9.736883    1.783629    1.961218
      6          6           0        8.377019    1.670468    1.627507
      7          6           0        7.684996    2.517414    0.679513
      8          6           0        8.348544    3.737988    0.238840
      9          6           0        7.623632    4.677567   -0.554141
     10          6           0        6.287815    4.436181   -0.933402
     11          6           0        5.633212    3.226718   -0.509076
     12          6           0        6.323702    2.302566    0.262513
     13          7           0        4.953506    6.190095   -2.422151
     14          6           0        5.561496    5.402916   -1.750686
     15          1           0       11.515176    2.896919    1.284006
     16          1           0        7.731466    0.939478    2.146002
     17          1           0        8.124270    5.600010   -0.879535
     18          1           0        4.588916    3.054493   -0.799490
     19          1           0        5.820092    1.382044    0.588797
 ---------------------------------------------------------------------
                    Distance matrix (angstroms):
                    1          2          3          4          5
     1  N    0.000000
     2  C    1.202176   0.000000
     3  C    2.654598   1.453211   0.000000
     4  C    3.588884   2.508566   1.422023   0.000000
     5  C    4.964745   3.834378   2.524360   1.435983   0.000000
     6  C    5.467543   4.268124   2.820003   2.377393   1.404777
     7  C    4.998328   3.830684   2.492527   2.809964   2.528131
     8  C    3.629449   2.520899   1.457521   2.472874   2.951879
     9  C    3.770714   2.968089   2.538159   3.801858   4.378097
    10  C    5.146978   4.377363   3.823234   4.938898   5.225985
    11  C    6.176664   5.231933   4.318572   5.113856   5.002496
    12  C    6.100127   5.002417   3.800411   4.246236   3.847687
    13  N    6.560736   6.194597   6.110651   7.389719   7.842930
    14  C    5.809724   5.281892   5.029898   6.260081   6.656674
    15  H    3.513217   2.690311   2.151254   1.105577   2.204621
    16  H    6.546639   5.349451   3.908314   3.404034   2.183674
    17  H    3.104602   2.619617   2.772284   4.175209   5.023460
    18  H    7.209390   6.302656   5.416081   6.183967   5.978140
    19  H    7.101766   5.967793   4.673631   4.868488   4.169659
                    6          7          8          9         10
     6  C    0.000000
     7  C    1.447379   0.000000
     8  C    2.490752   1.457495   0.000000
     9  C    3.790755   2.488359   1.427279   0.000000
    10  C    4.309547   2.869717   2.471483   1.409437   0.000000
    11  C    3.809905   2.475010   2.862483   2.463487   1.439222
    12  C    2.545362   1.439850   2.482133   2.827962   2.446183
    13  N    6.967582   5.529009   4.961853   3.592600   2.659505
    14  C    5.768060   4.329115   3.807602   2.492038   1.459475
    15  H    3.386769   3.896116   3.439088   4.657640   5.883156
    16  H    1.104500   2.154676   3.442340   4.612560   4.877887
    17  H    4.668023   3.482239   2.183618   1.098826   2.174848
    18  H    4.706969   3.472983   3.959810   3.450227   2.193912
    19  H    2.774884   2.185214   3.473617   3.926772   3.444358
                   11         12         13         14         15
    11  C    0.000000
    12  C    1.387870   0.000000
    13  N    3.592139   4.919120   0.000000
    14  C    2.506507   3.774400   1.200070   0.000000
    15  H    6.158037   5.324294   8.224118   7.136923   0.000000
    16  H    4.084553   2.717966   7.493601   6.309930   4.346386
    17  H    3.460509   3.926761   3.575137   2.713956   4.846221
    18  H    1.097522   2.168577   3.549360   2.713996   7.234560
    19  H    2.154778   1.098838   5.738827   4.659126   5.933982
                   16         17         18         19
    16  H    0.000000
    17  H    5.570343   0.000000
    18  H    4.798419   4.357153   0.000000
    19  H    2.504816   5.025581   2.498043   0.000000
 Stoichiometry    C12H5N2(1-)
 Framework group  C1[X(C12H5N2)]
 Deg. of freedom    51
 Full point group                 C1      NOp   1
 Largest Abelian subgroup         C1      NOp   1
 Largest concise Abelian subgroup C1      NOp   1
                         Standard orientation:                         
 ---------------------------------------------------------------------
 Center     Atomic      Atomic             Coordinates (Angstroms)
 Number     Number       Type             X           Y           Z
 ---------------------------------------------------------------------
      1          7           0        1.781284    3.391303    0.062076
      2          6           0        1.713411    2.191202    0.042603
      3          6           0        1.693387    0.739302   -0.015757
      4          6           0        2.887455   -0.013779   -0.186702
      5          6           0        2.992862   -1.423337    0.066446
      6          6           0        1.751133   -2.075529    0.144895
      7          6           0        0.466258   -1.430218   -0.021162
      8          6           0        0.422268    0.026396    0.003935
      9          6           0       -0.843936    0.684877    0.020003
     10          6           0       -2.048095   -0.047059   -0.007964
     11          6           0       -2.008035   -1.485275   -0.043866
     12          6           0       -0.785129   -2.141347   -0.059814
     13          7           0       -4.400281    1.193863    0.009373
     14          6           0       -3.335508    0.640361    0.001568
     15          1           0        3.784044    0.557980   -0.489224
     16          1           0        1.695774   -3.145310    0.414014
     17          1           0       -0.874203    1.782990    0.045517
     18          1           0       -2.951589   -2.045794   -0.052792
     19          1           0       -0.757470   -3.239597   -0.082779
 ---------------------------------------------------------------------
 Rotational constants (GHZ):      1.0817934      0.5546012      0.3673318

 **********************************************************************

            Population analysis using the SCF density.

 **********************************************************************

 Orbital symmetries:
       Occupied  (A) (A) (A) (A) (A) (A) (A) (A) (A) (A) (A) (A)
                 (A) (A) (A) (A) (A) (A) (A) (A) (A) (A) (A) (A)
                 (A) (A) (A) (A) (A) (A) (A) (A) (A) (A) (A) (A)
                 (A) (A) (A) (A) (A) (A) (A) (A) (A) (A)
       Virtual   (A) (A) (A) (A) (A) (A) (A) (A) (A) (A) (A) (A)
                 (A) (A) (A) (A) (A) (A) (A) (A) (A) (A) (A) (A)
                 (A) (A) (A) (A) (A)
 The electronic state is 1-A.
 Alpha  occ. eigenvalues --  -13.99459 -13.95557  -9.90715  -9.89976  -9.88056
 Alpha  occ. eigenvalues --   -9.87970  -9.87389  -9.86967  -9.86465  -9.86456
 Alpha  occ. eigenvalues --   -9.86279  -9.82437  -9.80361  -9.69585  -0.72996
 Alpha  occ. eigenvalues --   -0.69847  -0.67584  -0.61808  -0.58468  -0.54123
 Alpha  occ. eigenvalues --   -0.52122  -0.44111  -0.42779  -0.41046  -0.35933
 Alpha  occ. eigenvalues --   -0.31571  -0.29632  -0.27601  -0.25470  -0.24709
 Alpha  occ. eigenvalues --   -0.21182  -0.20970  -0.18991  -0.17476  -0.17025
 Alpha  occ. eigenvalues --   -0.15264  -0.14130  -0.14052  -0.13552  -0.11561
 Alpha  occ. eigenvalues --   -0.11060  -0.08971  -0.07614  -0.02184   0.00822
 Alpha  occ. eigenvalues --    0.09491
 Alpha virt. eigenvalues --    0.16960   0.20463   0.23936   0.25394   0.28252
 Alpha virt. eigenvalues --    0.29622   0.35015   0.37230   0.42660   0.44636
 Alpha virt. eigenvalues --    0.47578   0.50927   0.53579   0.56504   0.56949
 Alpha virt. eigenvalues --    0.58135   0.60244   0.64325   0.67140   0.69491
 Alpha virt. eigenvalues --    0.70810   0.75773   0.77522   0.82250   0.84698
 Alpha virt. eigenvalues --    0.92002   0.93298   1.06358   1.09691
          Condensed to atoms (all electrons):
               1          2          3          4          5          6
     1  N    6.621720   0.653628  -0.011304  -0.000161  -0.000001   0.000000
     2  C    0.653628   4.951688   0.424103  -0.026792   0.000715   0.000040
     3  C   -0.011304   0.424103   4.833201   0.477395  -0.019931  -0.011078
     4  C   -0.000161  -0.026792   0.477395   4.900665   0.443882  -0.031425
     5  C   -0.000001   0.000715  -0.019931   0.443882   5.370843   0.484895
     6  C    0.000000   0.000040  -0.011078  -0.031425   0.484895   4.917871
     7  C   -0.000001   0.000722  -0.028379  -0.012628  -0.020875   0.451948
     8  C    0.000028  -0.029140   0.453925  -0.029925  -0.007687  -0.029917
     9  C   -0.000101  -0.004273  -0.026966   0.000643   0.000021   0.000753
    10  C    0.000000   0.000015   0.000722  -0.000006   0.000000   0.000035
    11  C    0.000000   0.000000   0.000029   0.000000  -0.000007   0.000682
    12  C    0.000000  -0.000005   0.000778   0.000053   0.000675  -0.025908
    13  N    0.000000   0.000000   0.000000   0.000000   0.000000   0.000000
    14  C    0.000000   0.000000  -0.000005   0.000000   0.000000   0.000000
    15  H    0.000103  -0.003410  -0.033667   0.380788  -0.031202   0.001994
    16  H    0.000000   0.000001   0.000027   0.002133  -0.031803   0.380416
    17  H   -0.000073   0.001632  -0.003493   0.000022  -0.000001  -0.000017
    18  H    0.000000   0.000000   0.000001   0.000000   0.000000  -0.000014
    19  H    0.000000   0.000000  -0.000016   0.000001   0.000015  -0.003106
               7          8          9         10         11         12
     1  N   -0.000001   0.000028  -0.000101   0.000000   0.000000   0.000000
     2  C    0.000722  -0.029140  -0.004273   0.000015   0.000000  -0.000005
     3  C   -0.028379   0.453925  -0.026966   0.000722   0.000029   0.000778
     4  C   -0.012628  -0.029925   0.000643  -0.000006   0.000000   0.000053
     5  C   -0.020875  -0.007687   0.000021   0.000000  -0.000007   0.000675
     6  C    0.451948  -0.029917   0.000753   0.000035   0.000682  -0.025908
     7  C    4.822317   0.454835  -0.025299  -0.009041  -0.026433   0.465614
     8  C    0.454835   4.802802   0.481794  -0.027103  -0.008695  -0.027538
     9  C   -0.025299   0.481794   4.833129   0.501204  -0.029483  -0.009475
    10  C   -0.009041  -0.027103   0.501204   4.773799   0.465634  -0.029389
    11  C   -0.026433  -0.008695  -0.029483   0.465634   4.833345   0.525432
    12  C    0.465614  -0.027538  -0.009475  -0.029389   0.525432   4.835936
    13  N    0.000000  -0.000001  -0.000087  -0.011023  -0.000097  -0.000001
    14  C    0.000014   0.000834  -0.028751   0.421901  -0.028597   0.000851
    15  H    0.000009   0.001236  -0.000016   0.000000   0.000000   0.000001
    16  H   -0.034220   0.001236  -0.000021  -0.000001   0.000006  -0.003616
    17  H    0.001231  -0.024401   0.385719  -0.025087   0.001250   0.000027
    18  H    0.001307   0.000028   0.001221  -0.025092   0.387389  -0.024618
    19  H   -0.025492   0.001269   0.000025   0.001400  -0.026585   0.385889
              13         14         15         16         17         18
     1  N    0.000000   0.000000   0.000103   0.000000  -0.000073   0.000000
     2  C    0.000000   0.000000  -0.003410   0.000001   0.001632   0.000000
     3  C    0.000000  -0.000005  -0.033667   0.000027  -0.003493   0.000001
     4  C    0.000000   0.000000   0.380788   0.002133   0.000022   0.000000
     5  C    0.000000   0.000000  -0.031202  -0.031803  -0.000001   0.000000
     6  C    0.000000   0.000000   0.001994   0.380416  -0.000017  -0.000014
     7  C    0.000000   0.000014   0.000009  -0.034220   0.001231   0.001307
     8  C   -0.000001   0.000834   0.001236   0.001236  -0.024401   0.000028
     9  C   -0.000087  -0.028751  -0.000016  -0.000021   0.385719   0.001221
    10  C   -0.011023   0.421901   0.000000  -0.000001  -0.025087  -0.025092
    11  C   -0.000097  -0.028597   0.000000   0.000006   0.001250   0.387389
    12  C   -0.000001   0.000851   0.000001  -0.003616   0.000027  -0.024618
    13  N    6.591209   0.660160   0.000000   0.000000   0.000058   0.000057
    14  C    0.660160   4.933777   0.000000   0.000000  -0.003393  -0.003057
    15  H    0.000000   0.000000   0.649652  -0.000023  -0.000001   0.000000
    16  H    0.000000   0.000000  -0.000023   0.663264   0.000000   0.000000
    17  H    0.000058  -0.003393  -0.000001   0.000000   0.590328  -0.000033
    18  H    0.000057  -0.003057   0.000000   0.000000  -0.000033   0.606898
    19  H    0.000000  -0.000017   0.000000   0.001220   0.000002  -0.003806
              19
     1  N    0.000000
     2  C    0.000000
     3  C   -0.000016
     4  C    0.000001
     5  C    0.000015
     6  C   -0.003106
     7  C   -0.025492
     8  C    0.001269
     9  C    0.000025
    10  C    0.001400
    11  C   -0.026585
    12  C    0.385889
    13  N    0.000000
    14  C   -0.000017
    15  H    0.000000
    16  H    0.001220
    17  H    0.000002
    18  H   -0.003806
    19  H    0.611823
 Mulliken charges:
               1
     1  N   -0.263838
     2  C    0.031076
     3  C   -0.055342
     4  C   -0.104647
     5  C   -0.189539
     6  C   -0.137170
     7  C   -0.015629
     8  C   -0.013582
     9  C   -0.080038
    10  C   -0.037968
    11  C   -0.093870
    12  C   -0.094708
    13  N   -0.240275
    14  C    0.046284
    15  H    0.034537
    16  H    0.021381
    17  H    0.076227
    18  H    0.059721
    19  H    0.057378
 Sum of Mulliken charges =  -1.00000
 Mulliken charges with hydrogens summed into heavy atoms:
               1
     1  N   -0.263838
     2  C    0.031076
     3  C   -0.055342
     4  C   -0.070109
     5  C   -0.189539
     6  C   -0.115788
     7  C   -0.015629
     8  C   -0.013582
     9  C   -0.003811
    10  C   -0.037968
    11  C   -0.034149
    12  C   -0.037330
    13  N   -0.240275
    14  C    0.046284
 Electronic spatial extent (au):  <R**2>=           2776.8798
 Charge=             -1.0000 electrons
 Dipole moment (field-independent basis, Debye):
    X=             -3.0862    Y=             -2.2564    Z=             -0.2836  Tot=              3.8336
 Quadrupole moment (field-independent basis, Debye-Ang):
   XX=           -122.2153   YY=            -98.0600   ZZ=            -74.4030
   XY=              9.1832   XZ=             -0.9079   YZ=              0.1102
 Traceless Quadrupole moment (field-independent basis, Debye-Ang):
   XX=            -23.9892   YY=              0.1661   ZZ=             23.8231
   XY=              9.1832   XZ=             -0.9079   YZ=              0.1102
 Octapole moment (field-independent basis, Debye-Ang**2):
  XXX=             38.4487  YYY=            -54.9872  ZZZ=              0.1424  XYY=            -44.7906
  XXY=            -15.4337  XXZ=             -3.8380  XZZ=             -2.7496  YZZ=              5.0069
  YYZ=             -2.0263  XYZ=              0.9532
 Hexadecapole moment (field-independent basis, Debye-Ang**3):
 XXXX=          -3097.9346 YYYY=          -1475.6043 ZZZZ=            -62.9577 XXXY=            292.8565
 XXXZ=            -11.7499 YYYX=            -73.0079 YYYZ=             -4.1729 ZZZX=             -0.1831
 ZZZY=              0.8276 XXYY=           -741.4582 XXZZ=           -390.3067 YYZZ=           -215.2629
 XXYZ=              3.5788 YYXZ=             -4.9032 ZZXY=              1.1161
 N-N= 6.961978536361D+02 E-N=-2.714240021326D+03  KE= 5.546472987810D+02
 1\1\GINC-N004\FOpt\RB3LYP\STO-3G\C12H5N2(1-)\R2532\15-Jun-2021\0\\#N B
 3LYP/STO-3G OPT\\1Naph\\-1,1\N,11.0808092488,6.1058717552,-0.078580034
 \C,10.4482535208,5.1330302094,0.2355534216\C,9.7444008646,3.920124679,
 0.6167005541\C,10.4105915561,2.8507583529,1.2760910342\C,9.7368828621,
 1.7836291437,1.9612175565\C,8.3770186009,1.6704683549,1.6275072759\C,7
 .6849956288,2.517413912,0.6795132983\C,8.3485441497,3.7379882455,0.238
 8404579\C,7.6236320247,4.6775668968,-0.5541414765\C,6.2878151193,4.436
 1805682,-0.9334023969\C,5.6332118239,3.2267175611,-0.5090761308\C,6.32
 37021531,2.3025659966,0.2625128335\N,4.9535061356,6.1900948182,-2.4221
 512925\C,5.5614964227,5.4029158725,-1.7506855599\H,11.515176034,2.8969
 185875,1.284006073\H,7.7314660952,0.9394783433,2.1460019703\H,8.124269
 5017,5.6000096889,-0.8795345436\H,4.5889160999,3.0544929411,-0.7994897
 513\H,5.8200921581,1.3820440731,0.5887967102\\Version=ES64L-G09RevD.01
 \State=1-A\HF=-562.5161221\RMSD=4.109e-09\RMSF=2.455e-05\Dipole=-1.394
 6416,-0.4062868,-0.4058627\Quadrupole=-4.6525835,-0.7248494,5.3774329,
 5.268443,-11.8417022,13.0177955\PG=C01 [X(C12H5N2)]\\@


 THE PROBLEM WITH THE LADDER OF SUCCESS IS YOU CAN'T
 CLIMB IT WHILE YOU'RE TWIDDLING YOUR THUMBS.
 Job cpu time:       0 days  0 hours 11 minutes 38.2 seconds.
 File lengths (MBytes):  RWF=      6 Int=      0 D2E=      0 Chk=      2 Scr=      1
 Normal termination of Gaussian 09 at Tue Jun 15 12:31:24 2021.
