 Entering Gaussian System, Link 0=/usr/local/apps//g09/g09
 Input=26.com
 Output=26.out
 Initial command:
 /usr/local/apps//g09/l1.exe "/tmp/bnp.472639.sequoia/Gau-15754.inp" -scrdir="/tmp/bnp.472639.sequoia/"
 Entering Link 1 = /usr/local/apps//g09/l1.exe PID=     15757.
  
 Copyright (c) 1988,1990,1992,1993,1995,1998,2003,2009,2013,
            Gaussian, Inc.  All Rights Reserved.
  
 This is part of the Gaussian(R) 09 program.  It is based on
 the Gaussian(R) 03 system (copyright 2003, Gaussian, Inc.),
 the Gaussian(R) 98 system (copyright 1998, Gaussian, Inc.),
 the Gaussian(R) 94 system (copyright 1995, Gaussian, Inc.),
 the Gaussian 92(TM) system (copyright 1992, Gaussian, Inc.),
 the Gaussian 90(TM) system (copyright 1990, Gaussian, Inc.),
 the Gaussian 88(TM) system (copyright 1988, Gaussian, Inc.),
 the Gaussian 86(TM) system (copyright 1986, Carnegie Mellon
 University), and the Gaussian 82(TM) system (copyright 1983,
 Carnegie Mellon University). Gaussian is a federally registered
 trademark of Gaussian, Inc.
  
 This software contains proprietary and confidential information,
 including trade secrets, belonging to Gaussian, Inc.
  
 This software is provided under written license and may be
 used, copied, transmitted, or stored only in accord with that
 written license.
  
 The following legend is applicable only to US Government
 contracts under FAR:
  
                    RESTRICTED RIGHTS LEGEND
  
 Use, reproduction and disclosure by the US Government is
 subject to restrictions as set forth in subparagraphs (a)
 and (c) of the Commercial Computer Software - Restricted
 Rights clause in FAR 52.227-19.
  
 Gaussian, Inc.
 340 Quinnipiac St., Bldg. 40, Wallingford CT 06492
  
  
 ---------------------------------------------------------------
 Warning -- This program may not be used in any manner that
 competes with the business of Gaussian, Inc. or will provide
 assistance to any competitor of Gaussian, Inc.  The licensee
 of this program is prohibited from giving any competitor of
 Gaussian, Inc. access to this program.  By using this program,
 the user acknowledges that Gaussian, Inc. is engaged in the
 business of creating and licensing software in the field of
 computational chemistry and represents and warrants to the
 licensee that it is not a competitor of Gaussian, Inc. and that
 it will not use this program in any manner prohibited above.
 ---------------------------------------------------------------
  

 Cite this work as:
 Gaussian 09, Revision D.01,
 M. J. Frisch, G. W. Trucks, H. B. Schlegel, G. E. Scuseria, 
 M. A. Robb, J. R. Cheeseman, G. Scalmani, V. Barone, B. Mennucci, 
 G. A. Petersson, H. Nakatsuji, M. Caricato, X. Li, H. P. Hratchian, 
 A. F. Izmaylov, J. Bloino, G. Zheng, J. L. Sonnenberg, M. Hada, 
 M. Ehara, K. Toyota, R. Fukuda, J. Hasegawa, M. Ishida, T. Nakajima, 
 Y. Honda, O. Kitao, H. Nakai, T. Vreven, J. A. Montgomery, Jr., 
 J. E. Peralta, F. Ogliaro, M. Bearpark, J. J. Heyd, E. Brothers, 
 K. N. Kudin, V. N. Staroverov, T. Keith, R. Kobayashi, J. Normand, 
 K. Raghavachari, A. Rendell, J. C. Burant, S. S. Iyengar, J. Tomasi, 
 M. Cossi, N. Rega, J. M. Millam, M. Klene, J. E. Knox, J. B. Cross, 
 V. Bakken, C. Adamo, J. Jaramillo, R. Gomperts, R. E. Stratmann, 
 O. Yazyev, A. J. Austin, R. Cammi, C. Pomelli, J. W. Ochterski, 
 R. L. Martin, K. Morokuma, V. G. Zakrzewski, G. A. Voth, 
 P. Salvador, J. J. Dannenberg, S. Dapprich, A. D. Daniels, 
 O. Farkas, J. B. Foresman, J. V. Ortiz, J. Cioslowski, 
 and D. J. Fox, Gaussian, Inc., Wallingford CT, 2013.
 
 ******************************************
 Gaussian 09:  ES64L-G09RevD.01 24-Apr-2013
                15-Jun-2021 
 ******************************************
 -------------------
 #N B3LYP/STO-3G OPT
 -------------------
 1/14=-1,18=20,19=15,26=3,38=1/1,3;
 2/9=110,12=2,17=6,18=5,40=1/2;
 3/6=3,11=2,16=1,25=1,30=1,71=1,74=-5/1,2,3;
 4//1;
 5/5=2,38=5/2;
 6/7=2,8=2,9=2,10=2,28=1/1;
 7//1,2,3,16;
 1/14=-1,18=20,19=15,26=3/3(2);
 2/9=110/2;
 99//99;
 2/9=110/2;
 3/6=3,11=2,16=1,25=1,30=1,71=1,74=-5/1,2,3;
 4/5=5,16=3,69=1/1;
 5/5=2,38=5/2;
 7//1,2,3,16;
 1/14=-1,18=20,19=15,26=3/3(-5);
 2/9=110/2;
 6/7=2,8=2,9=2,10=2,19=2,28=1/1;
 99/9=1/99;
 -----
 2Naph
 -----
 Symbolic Z-matrix:
 Charge = -1 Multiplicity = 1
 N                     3.90473  -0.02168  -1.56614 
 C                     4.70742  -0.06364  -0.72692 
 C                     5.59356  -0.5081    1.56381 
 C                     5.7794   -0.12093   0.22236 
 C                     7.06166   0.19947  -0.23601 
 C                     8.14858   0.06015   0.61025 
 C                     7.98073  -0.3611    1.93107 
 C                     6.69787  -0.62153   2.45191 
 C                     6.61174  -0.99348   3.82038 
 C                     7.77301  -1.12665   4.60947 
 C                     9.02624  -0.92078   4.03653 
 C                     9.12839  -0.52727   2.70352 
 N                     7.71898  -1.70198   7.14102 
 C                     7.7141   -1.45727   6.00608 
 H                     4.58826  -0.73966   1.91411 
 H                     7.22951   0.53348  -1.25708 
 H                     5.63856  -1.17669   4.27504 
 H                     9.94019  -1.05513   4.61347 
 H                     10.11008  -0.36573   2.27102 
 

 GradGradGradGradGradGradGradGradGradGradGradGradGradGradGradGradGradGrad
 Berny optimization.
 Initialization pass.
                           ----------------------------
                           !    Initial Parameters    !
                           ! (Angstroms and Degrees)  !
 --------------------------                            --------------------------
 ! Name  Definition              Value          Derivative Info.                !
 --------------------------------------------------------------------------------
 ! R1    R(1,2)                  1.1621         estimate D2E/DX2                !
 ! R2    R(2,4)                  1.433          estimate D2E/DX2                !
 ! R3    R(3,4)                  1.4085         estimate D2E/DX2                !
 ! R4    R(3,8)                  1.4216         estimate D2E/DX2                !
 ! R5    R(3,15)                 1.0895         estimate D2E/DX2                !
 ! R6    R(4,5)                  1.3989         estimate D2E/DX2                !
 ! R7    R(5,6)                  1.3845         estimate D2E/DX2                !
 ! R8    R(5,16)                 1.0873         estimate D2E/DX2                !
 ! R9    R(6,7)                  1.3965         estimate D2E/DX2                !
 ! R10   R(7,8)                  1.4088         estimate D2E/DX2                !
 ! R11   R(7,12)                 1.3933         estimate D2E/DX2                !
 ! R12   R(8,9)                  1.4207         estimate D2E/DX2                !
 ! R13   R(9,10)                 1.4103         estimate D2E/DX2                !
 ! R14   R(9,17)                 1.0897         estimate D2E/DX2                !
 ! R15   R(10,11)                1.3933         estimate D2E/DX2                !
 ! R16   R(10,14)                1.4364         estimate D2E/DX2                !
 ! R17   R(11,12)                1.3936         estimate D2E/DX2                !
 ! R18   R(11,18)                1.0891         estimate D2E/DX2                !
 ! R19   R(12,19)                1.0848         estimate D2E/DX2                !
 ! R20   R(13,14)                1.161          estimate D2E/DX2                !
 ! A1    A(4,3,8)              120.957          estimate D2E/DX2                !
 ! A2    A(4,3,15)             119.1036         estimate D2E/DX2                !
 ! A3    A(8,3,15)             119.9303         estimate D2E/DX2                !
 ! A4    A(2,4,3)              122.9004         estimate D2E/DX2                !
 ! A5    A(2,4,5)              117.3527         estimate D2E/DX2                !
 ! A6    A(3,4,5)              119.7327         estimate D2E/DX2                !
 ! A7    A(4,5,6)              119.7526         estimate D2E/DX2                !
 ! A8    A(4,5,16)             121.3014         estimate D2E/DX2                !
 ! A9    A(6,5,16)             118.9267         estimate D2E/DX2                !
 ! A10   A(5,6,7)              120.937          estimate D2E/DX2                !
 ! A11   A(6,7,8)              120.9887         estimate D2E/DX2                !
 ! A12   A(6,7,12)             117.4722         estimate D2E/DX2                !
 ! A13   A(8,7,12)             121.535          estimate D2E/DX2                !
 ! A14   A(3,8,7)              117.492          estimate D2E/DX2                !
 ! A15   A(3,8,9)              125.1357         estimate D2E/DX2                !
 ! A16   A(7,8,9)              117.3673         estimate D2E/DX2                !
 ! A17   A(8,9,10)             120.9133         estimate D2E/DX2                !
 ! A18   A(8,9,17)             120.0041         estimate D2E/DX2                !
 ! A19   A(10,9,17)            119.0822         estimate D2E/DX2                !
 ! A20   A(9,10,11)            119.7764         estimate D2E/DX2                !
 ! A21   A(9,10,14)            122.1391         estimate D2E/DX2                !
 ! A22   A(11,10,14)           118.081          estimate D2E/DX2                !
 ! A23   A(10,11,12)           120.065          estimate D2E/DX2                !
 ! A24   A(10,11,18)           121.2481         estimate D2E/DX2                !
 ! A25   A(12,11,18)           118.6857         estimate D2E/DX2                !
 ! A26   A(7,12,11)            120.2366         estimate D2E/DX2                !
 ! A27   A(7,12,19)            120.4362         estimate D2E/DX2                !
 ! A28   A(11,12,19)           119.3216         estimate D2E/DX2                !
 ! A29   L(1,2,4,16,-1)        175.5279         estimate D2E/DX2                !
 ! A30   L(10,14,13,18,-1)     177.3662         estimate D2E/DX2                !
 ! A31   L(1,2,4,16,-2)        181.902          estimate D2E/DX2                !
 ! A32   L(10,14,13,18,-2)     178.7327         estimate D2E/DX2                !
 ! D1    D(8,3,4,2)            176.5016         estimate D2E/DX2                !
 ! D2    D(8,3,4,5)             -2.0903         estimate D2E/DX2                !
 ! D3    D(15,3,4,2)            -2.3982         estimate D2E/DX2                !
 ! D4    D(15,3,4,5)           179.01           estimate D2E/DX2                !
 ! D5    D(4,3,8,7)             -1.3563         estimate D2E/DX2                !
 ! D6    D(4,3,8,9)            179.4811         estimate D2E/DX2                !
 ! D7    D(15,3,8,7)           177.5345         estimate D2E/DX2                !
 ! D8    D(15,3,8,9)            -1.6281         estimate D2E/DX2                !
 ! D9    D(2,4,5,6)           -174.9806         estimate D2E/DX2                !
 ! D10   D(2,4,5,16)             3.4078         estimate D2E/DX2                !
 ! D11   D(3,4,5,6)              3.6883         estimate D2E/DX2                !
 ! D12   D(3,4,5,16)          -177.9233         estimate D2E/DX2                !
 ! D13   D(4,5,6,7)             -1.8136         estimate D2E/DX2                !
 ! D14   D(16,5,6,7)           179.7597         estimate D2E/DX2                !
 ! D15   D(5,6,7,8)             -1.7462         estimate D2E/DX2                !
 ! D16   D(5,6,7,12)           177.53           estimate D2E/DX2                !
 ! D17   D(6,7,8,3)              3.2681         estimate D2E/DX2                !
 ! D18   D(6,7,8,9)           -177.503          estimate D2E/DX2                !
 ! D19   D(12,7,8,3)          -175.9784         estimate D2E/DX2                !
 ! D20   D(12,7,8,9)             3.2504         estimate D2E/DX2                !
 ! D21   D(6,7,12,11)          178.7617         estimate D2E/DX2                !
 ! D22   D(6,7,12,19)           -2.1051         estimate D2E/DX2                !
 ! D23   D(8,7,12,11)           -1.9663         estimate D2E/DX2                !
 ! D24   D(8,7,12,19)          177.1669         estimate D2E/DX2                !
 ! D25   D(3,8,9,10)           177.6212         estimate D2E/DX2                !
 ! D26   D(3,8,9,17)            -2.6004         estimate D2E/DX2                !
 ! D27   D(7,8,9,10)            -1.5423         estimate D2E/DX2                !
 ! D28   D(7,8,9,17)           178.2361         estimate D2E/DX2                !
 ! D29   D(8,9,10,11)           -1.4424         estimate D2E/DX2                !
 ! D30   D(8,9,10,14)          177.8638         estimate D2E/DX2                !
 ! D31   D(17,9,10,11)         178.7772         estimate D2E/DX2                !
 ! D32   D(17,9,10,14)          -1.9166         estimate D2E/DX2                !
 ! D33   D(9,10,11,12)           2.8146         estimate D2E/DX2                !
 ! D34   D(9,10,11,18)        -177.5903         estimate D2E/DX2                !
 ! D35   D(14,10,11,12)       -176.5195         estimate D2E/DX2                !
 ! D36   D(14,10,11,18)          3.0756         estimate D2E/DX2                !
 ! D37   D(10,11,12,7)          -1.1506         estimate D2E/DX2                !
 ! D38   D(10,11,12,19)        179.7065         estimate D2E/DX2                !
 ! D39   D(18,11,12,7)         179.2439         estimate D2E/DX2                !
 ! D40   D(18,11,12,19)          0.1011         estimate D2E/DX2                !
 --------------------------------------------------------------------------------
 Trust Radius=3.00D-01 FncErr=1.00D-07 GrdErr=1.00D-06
 Number of steps in this run=    102 maximum allowed number of steps=    114.
 GradGradGradGradGradGradGradGradGradGradGradGradGradGradGradGradGradGrad

                          Input orientation:                          
 ---------------------------------------------------------------------
 Center     Atomic      Atomic             Coordinates (Angstroms)
 Number     Number       Type             X           Y           Z
 ---------------------------------------------------------------------
      1          7           0        3.904730   -0.021680   -1.566140
      2          6           0        4.707420   -0.063640   -0.726920
      3          6           0        5.593560   -0.508100    1.563810
      4          6           0        5.779400   -0.120930    0.222360
      5          6           0        7.061660    0.199470   -0.236010
      6          6           0        8.148580    0.060150    0.610250
      7          6           0        7.980730   -0.361100    1.931070
      8          6           0        6.697870   -0.621530    2.451910
      9          6           0        6.611740   -0.993480    3.820380
     10          6           0        7.773010   -1.126650    4.609470
     11          6           0        9.026240   -0.920780    4.036530
     12          6           0        9.128390   -0.527270    2.703520
     13          7           0        7.718980   -1.701980    7.141020
     14          6           0        7.714100   -1.457270    6.006080
     15          1           0        4.588260   -0.739660    1.914110
     16          1           0        7.229510    0.533480   -1.257080
     17          1           0        5.638560   -1.176690    4.275040
     18          1           0        9.940190   -1.055130    4.613470
     19          1           0       10.110080   -0.365730    2.271020
 ---------------------------------------------------------------------
                    Distance matrix (angstroms):
                    1          2          3          4          5
     1  N    0.000000
     2  C    1.162051   0.000000
     3  C    3.589615   2.496043   0.000000
     4  C    2.592869   1.433023   1.408519   0.000000
     5  C    3.432836   2.419228   2.428029   1.398910   0.000000
     6  C    4.770077   3.693904   2.785734   2.407543   1.384544
     7  C    5.381399   4.227050   2.419725   2.797003   2.419745
     8  C    4.930129   3.791846   1.421650   2.462738   2.833954
     9  C    6.106300   5.016869   2.522775   3.794718   4.252042
    10  C    7.370394   6.245390   3.795873   4.922671   5.073785
    11  C    7.643831   6.486706   4.250640   5.072438   4.834163
    12  C    6.765519   5.614966   3.714072   4.187720   3.666110
    13  N    9.653318   8.582432   6.086709   7.357278   7.646447
    14  C    8.597135   7.504373   5.013120   6.243419   6.491083
    15  H    3.618681   2.728780   1.089476   2.159551   3.409206
    16  H    3.384949   2.645479   3.423250   2.172513   1.087346
    17  H    6.201580   5.208215   2.792813   4.190308   4.926317
    18  H    8.699562   7.542195   5.337870   6.121009   5.777319
    19  H    7.304008   6.186084   4.573770   4.797054   3.987169
                    6          7          8          9         10
     6  C    0.000000
     7  C    1.396492   0.000000
     8  C    2.441507   1.408839   0.000000
     9  C    3.711731   2.417340   1.420731   0.000000
    10  C    4.188473   2.793392   2.462953   1.410300   0.000000
    11  C    3.670409   2.416463   2.832292   2.425246   1.393280
    12  C    2.384716   1.393347   2.445326   2.792536   2.414323
    13  N    6.777951   5.386098   4.919125   3.571359   2.596665
    14  C    5.621950   4.228284   3.789896   2.491502   1.436419
    15  H    3.875000   3.413568   2.180284   2.791552   4.190150
    16  H    2.134397   3.395424   3.920879   5.337963   6.121097
    17  H    4.610928   3.412498   2.180400   1.089661   2.161070
    18  H    4.525427   3.393587   3.920840   3.422188   2.168363
    19  H    2.605190   2.156321   3.426563   3.877237   3.392528
                   11         12         13         14         15
    11  C    0.000000
    12  C    1.393629   0.000000
    13  N    3.457898   4.801852   0.000000
    14  C    2.426656   3.711067   1.161032   0.000000
    15  H    4.922716   4.613140   6.168311   5.199044   0.000000
    16  H    5.776281   4.518549   8.704306   7.546616   4.318974
    17  H    3.405694   3.882053   3.580212   2.717184   2.620709
    18  H    1.089135   2.141393   3.426470   2.656418   6.002435
    19  H    2.144718   1.084835   5.587470   4.569776   5.545963
                   16         17         18         19
    16  H    0.000000
    17  H    6.005011   0.000000
    18  H    6.658440   4.316634   0.000000
    19  H    4.642602   4.966714   2.447694   0.000000
 Stoichiometry    C12H5N2(1-)
 Framework group  C1[X(C12H5N2)]
 Deg. of freedom    51
 Full point group                 C1      NOp   1
 Largest Abelian subgroup         C1      NOp   1
 Largest concise Abelian subgroup C1      NOp   1
                         Standard orientation:                         
 ---------------------------------------------------------------------
 Center     Atomic      Atomic             Coordinates (Angstroms)
 Number     Number       Type             X           Y           Z
 ---------------------------------------------------------------------
      1          7           0        4.849483   -1.250019    0.115120
      2          6           0        3.765904   -0.839421    0.027780
      3          6           0        1.273757   -0.967964   -0.026187
      4          6           0        2.471987   -0.227812   -0.044803
      5          6           0        2.423842    1.168847   -0.107837
      6          6           0        1.200522    1.816394   -0.074168
      7          6           0        0.007020    1.093671   -0.015744
      8          6           0        0.010868   -0.315125   -0.026125
      9          6           0       -1.249004   -0.971741   -0.018734
     10          6           0       -2.450098   -0.234275    0.030892
     11          6           0       -2.405670    1.156386    0.103801
     12          6           0       -1.179926    1.818579    0.068425
     13          7           0       -4.802022   -1.331564   -0.053242
     14          6           0       -3.738337   -0.868621   -0.005765
     15          1           0        1.323329   -2.055818    0.006591
     16          1           0        3.332656    1.763779   -0.157162
     17          1           0       -1.296646   -2.059746   -0.055309
     18          1           0       -3.317104    1.747433    0.182321
     19          1           0       -1.159655    2.901940    0.121197
 ---------------------------------------------------------------------
 Rotational constants (GHZ):      2.1119486      0.3674223      0.3132680
 Standard basis: STO-3G (5D, 7F)
 There are    75 symmetry adapted cartesian basis functions of A   symmetry.
 There are    75 symmetry adapted basis functions of A   symmetry.
    75 basis functions,   225 primitive gaussians,    75 cartesian basis functions
    46 alpha electrons       46 beta electrons
       nuclear repulsion energy       694.4038954081 Hartrees.
 NAtoms=   19 NActive=   19 NUniq=   19 SFac= 1.00D+00 NAtFMM=   60 NAOKFM=F Big=F
 Integral buffers will be    131072 words long.
 Raffenetti 2 integral format.
 Two-electron integral symmetry is turned on.
 One-electron integrals computed using PRISM.
 NBasis=    75 RedAO= T EigKep=  1.55D-01  NBF=    75
 NBsUse=    75 1.00D-06 EigRej= -1.00D+00 NBFU=    75
 ExpMin= 1.69D-01 ExpMax= 9.91D+01 ExpMxC= 9.91D+01 IAcc=1 IRadAn=         1 AccDes= 0.00D+00
 Harris functional with IExCor=  402 and IRadAn=       1 diagonalized for initial guess.
 HarFok:  IExCor=  402 AccDes= 0.00D+00 IRadAn=         1 IDoV= 1 UseB2=F ITyADJ=14
 ICtDFT=  3500011 ScaDFX=  1.000000  1.000000  1.000000  1.000000
 FoFCou: FMM=F IPFlag=           0 FMFlag=      100000 FMFlg1=           0
         NFxFlg=           0 DoJE=T BraDBF=F KetDBF=T FulRan=T
         wScrn=  0.000000 ICntrl=     500 IOpCl=  0 I1Cent=   200000004 NGrid=           0
         NMat0=    1 NMatS0=      1 NMatT0=    0 NMatD0=    1 NMtDS0=    0 NMtDT0=    0
 Petite list used in FoFCou.
 Keep R1 ints in memory in canonical form, NReq=4993994.
 Requested convergence on RMS density matrix=1.00D-08 within 128 cycles.
 Requested convergence on MAX density matrix=1.00D-06.
 Requested convergence on             energy=1.00D-06.
 No special actions if energy rises.
 Integral accuracy reduced to 1.0D-05 until final iterations.
 EnCoef did     6 forward-backward iterations
 EnCoef did   100 forward-backward iterations
 Initial convergence to 1.0D-05 achieved.  Increase integral accuracy.
 SCF Done:  E(RB3LYP) =  -562.476314291     A.U. after   31 cycles
            NFock= 31  Conv=0.80D-08     -V/T= 2.0128

 **********************************************************************

            Population analysis using the SCF density.

 **********************************************************************

 Orbital symmetries:
       Occupied  (A) (A) (A) (A) (A) (A) (A) (A) (A) (A) (A) (A)
                 (A) (A) (A) (A) (A) (A) (A) (A) (A) (A) (A) (A)
                 (A) (A) (A) (A) (A) (A) (A) (A) (A) (A) (A) (A)
                 (A) (A) (A) (A) (A) (A) (A) (A) (A) (A)
       Virtual   (A) (A) (A) (A) (A) (A) (A) (A) (A) (A) (A) (A)
                 (A) (A) (A) (A) (A) (A) (A) (A) (A) (A) (A) (A)
                 (A) (A) (A) (A) (A)
 The electronic state is 1-A.
 Alpha  occ. eigenvalues --  -13.99950 -13.96961  -9.90863  -9.90605  -9.87857
 Alpha  occ. eigenvalues --   -9.87744  -9.87670  -9.86841  -9.86374  -9.86020
 Alpha  occ. eigenvalues --   -9.84283  -9.83085  -9.79932  -9.65106  -0.75119
 Alpha  occ. eigenvalues --   -0.72530  -0.68293  -0.63272  -0.57857  -0.56824
 Alpha  occ. eigenvalues --   -0.50523  -0.46548  -0.43287  -0.40254  -0.34995
 Alpha  occ. eigenvalues --   -0.33207  -0.31263  -0.26193  -0.25718  -0.23776
 Alpha  occ. eigenvalues --   -0.22845  -0.21775  -0.20232  -0.18715  -0.16948
 Alpha  occ. eigenvalues --   -0.15982  -0.15873  -0.14923  -0.13878  -0.12869
 Alpha  occ. eigenvalues --   -0.11132  -0.10512  -0.07238  -0.04004   0.02091
 Alpha  occ. eigenvalues --    0.14309
 Alpha virt. eigenvalues --    0.17298   0.20196   0.26560   0.26729   0.29405
 Alpha virt. eigenvalues --    0.30145   0.36092   0.39354   0.44437   0.48247
 Alpha virt. eigenvalues --    0.49076   0.53314   0.55689   0.56687   0.59754
 Alpha virt. eigenvalues --    0.62664   0.63964   0.64721   0.71031   0.72786
 Alpha virt. eigenvalues --    0.74520   0.78452   0.81744   0.86225   0.88469
 Alpha virt. eigenvalues --    0.98108   1.00449   1.13439   1.16174
          Condensed to atoms (all electrons):
               1          2          3          4          5          6
     1  N    6.596925   0.682786   0.000006  -0.011396  -0.000414  -0.000001
     2  C    0.682786   4.915364  -0.029654   0.418979  -0.032008   0.001207
     3  C    0.000006  -0.029654   4.864350   0.508255  -0.034028  -0.013931
     4  C   -0.011396   0.418979   0.508255   4.786787   0.457932  -0.028395
     5  C   -0.000414  -0.032008  -0.034028   0.457932   4.900908   0.492633
     6  C   -0.000001   0.001207  -0.013931  -0.028395   0.492633   5.426773
     7  C    0.000000   0.000042  -0.034345  -0.012141  -0.029388   0.451177
     8  C   -0.000002   0.000872   0.485342  -0.025704  -0.011228  -0.028791
     9  C    0.000000  -0.000004  -0.027576   0.000741   0.000049   0.001154
    10  C    0.000000   0.000000   0.000728  -0.000007   0.000001   0.000040
    11  C    0.000000   0.000000   0.000036   0.000001  -0.000020   0.001211
    12  C    0.000000   0.000000   0.001002  -0.000011   0.001536  -0.045825
    13  N    0.000000   0.000000   0.000000   0.000000   0.000000   0.000000
    14  C    0.000000   0.000000  -0.000005   0.000000   0.000000   0.000000
    15  H    0.000071  -0.003601   0.388408  -0.026450   0.001336   0.000061
    16  H    0.000125  -0.003965   0.001215  -0.033163   0.389714  -0.036431
    17  H    0.000000  -0.000001  -0.002893   0.000006  -0.000002  -0.000029
    18  H    0.000000   0.000000   0.000001   0.000000   0.000000  -0.000029
    19  H    0.000000   0.000000  -0.000019   0.000000   0.000050  -0.002462
               7          8          9         10         11         12
     1  N    0.000000  -0.000002   0.000000   0.000000   0.000000   0.000000
     2  C    0.000042   0.000872  -0.000004   0.000000   0.000000   0.000000
     3  C   -0.034345   0.485342  -0.027576   0.000728   0.000036   0.001002
     4  C   -0.012141  -0.025704   0.000741  -0.000007   0.000001  -0.000011
     5  C   -0.029388  -0.011228   0.000049   0.000001  -0.000020   0.001536
     6  C    0.451177  -0.028791   0.001154   0.000040   0.001211  -0.045825
     7  C    4.832894   0.448238  -0.029346  -0.010923  -0.031073   0.481712
     8  C    0.448238   4.799069   0.476004  -0.027386  -0.008866  -0.035135
     9  C   -0.029346   0.476004   4.838647   0.505160  -0.031196  -0.011319
    10  C   -0.010923  -0.027386   0.505160   4.756790   0.479860  -0.030146
    11  C   -0.031073  -0.008866  -0.031196   0.479860   4.844745   0.515478
    12  C    0.481712  -0.035135  -0.011319  -0.030146   0.515478   4.829651
    13  N    0.000000  -0.000001  -0.000069  -0.011508  -0.000251  -0.000001
    14  C    0.000018   0.000862  -0.028361   0.427856  -0.033766   0.001072
    15  H    0.001382  -0.025557  -0.003117   0.000007  -0.000001  -0.000023
    16  H    0.002121  -0.000034   0.000001   0.000000   0.000000  -0.000005
    17  H    0.001449  -0.024690   0.385046  -0.026780   0.001406   0.000023
    18  H    0.001543   0.000019   0.001378  -0.025678   0.390173  -0.026403
    19  H   -0.024642   0.001532   0.000024   0.001494  -0.027281   0.390718
              13         14         15         16         17         18
     1  N    0.000000   0.000000   0.000071   0.000125   0.000000   0.000000
     2  C    0.000000   0.000000  -0.003601  -0.003965  -0.000001   0.000000
     3  C    0.000000  -0.000005   0.388408   0.001215  -0.002893   0.000001
     4  C    0.000000   0.000000  -0.026450  -0.033163   0.000006   0.000000
     5  C    0.000000   0.000000   0.001336   0.389714  -0.000002   0.000000
     6  C    0.000000   0.000000   0.000061  -0.036431  -0.000029  -0.000029
     7  C    0.000000   0.000018   0.001382   0.002121   0.001449   0.001543
     8  C   -0.000001   0.000862  -0.025557  -0.000034  -0.024690   0.000019
     9  C   -0.000069  -0.028361  -0.003117   0.000001   0.385046   0.001378
    10  C   -0.011508   0.427856   0.000007   0.000000  -0.026780  -0.025678
    11  C   -0.000251  -0.033766  -0.000001   0.000000   0.001406   0.390173
    12  C   -0.000001   0.001072  -0.000023  -0.000005   0.000023  -0.026403
    13  N    6.577205   0.686783   0.000000   0.000000   0.000059   0.000051
    14  C    0.686783   4.894656   0.000000   0.000000  -0.003402  -0.003954
    15  H    0.000000   0.000000   0.618171  -0.000039   0.000908   0.000000
    16  H    0.000000   0.000000  -0.000039   0.647427   0.000000   0.000000
    17  H    0.000059  -0.003402   0.000908   0.000000   0.607692  -0.000038
    18  H    0.000051  -0.003954   0.000000   0.000000  -0.000038   0.609337
    19  H    0.000000  -0.000021   0.000001  -0.000006   0.000003  -0.004113
              19
     1  N    0.000000
     2  C    0.000000
     3  C   -0.000019
     4  C    0.000000
     5  C    0.000050
     6  C   -0.002462
     7  C   -0.024642
     8  C    0.001532
     9  C    0.000024
    10  C    0.001494
    11  C   -0.027281
    12  C    0.390718
    13  N    0.000000
    14  C   -0.000021
    15  H    0.000001
    16  H   -0.000006
    17  H    0.000003
    18  H   -0.004113
    19  H    0.592517
 Mulliken charges:
               1
     1  N   -0.268101
     2  C    0.049983
     3  C   -0.106893
     4  C   -0.035435
     5  C   -0.137069
     6  C   -0.218362
     7  C   -0.048717
     8  C   -0.024543
     9  C   -0.077216
    10  C   -0.039506
    11  C   -0.100456
    12  C   -0.072326
    13  N   -0.252268
    14  C    0.058262
    15  H    0.048443
    16  H    0.033040
    17  H    0.061243
    18  H    0.057713
    19  H    0.072208
 Sum of Mulliken charges =  -1.00000
 Mulliken charges with hydrogens summed into heavy atoms:
               1
     1  N   -0.268101
     2  C    0.049983
     3  C   -0.058450
     4  C   -0.035435
     5  C   -0.104029
     6  C   -0.218362
     7  C   -0.048717
     8  C   -0.024543
     9  C   -0.015973
    10  C   -0.039506
    11  C   -0.042742
    12  C   -0.000118
    13  N   -0.252268
    14  C    0.058262
 Electronic spatial extent (au):  <R**2>=           3193.7524
 Charge=             -1.0000 electrons
 Dipole moment (field-independent basis, Debye):
    X=             -3.0110    Y=             -0.9712    Z=              0.1545  Tot=              3.1675
 Quadrupole moment (field-independent basis, Debye-Ang):
   XX=           -140.3297   YY=            -86.3206   ZZ=            -73.9510
   XY=             -5.3712   XZ=             -1.0367   YZ=              0.7480
 Traceless Quadrupole moment (field-independent basis, Debye-Ang):
   XX=            -40.1293   YY=             13.8799   ZZ=             26.2494
   XY=             -5.3712   XZ=             -1.0367   YZ=              0.7480
 Octapole moment (field-independent basis, Debye-Ang**2):
  XXX=            -23.3369  YYY=            -24.0499  ZZZ=              0.2156  XYY=            -15.1206
  XXY=             90.0571  XXZ=             -1.8716  XZZ=              0.0260  YZZ=             -2.4411
  YYZ=              1.4419  XYZ=              2.4591
 Hexadecapole moment (field-independent basis, Debye-Ang**3):
 XXXX=          -5081.0629 YYYY=           -726.4467 ZZZZ=            -60.1000 XXXY=            -12.4471
 XXXZ=            -38.6598 YYYX=            -42.3851 YYYZ=              4.5724 ZZZX=              2.4731
 ZZZY=             -0.0817 XXYY=           -810.6939 XXZZ=           -558.6554 YYZZ=           -125.8627
 XXYZ=              5.7883 YYXZ=             -1.6435 ZZXY=              0.4459
 N-N= 6.944038954081D+02 E-N=-2.710938624769D+03  KE= 5.553746334725D+02
 Calling FoFJK, ICntrl=      2127 FMM=F ISym2X=0 I1Cent= 0 IOpClX= 0 NMat=1 NMatS=1 NMatT=0.
 ***** Axes restored to original set *****
 -------------------------------------------------------------------
 Center     Atomic                   Forces (Hartrees/Bohr)
 Number     Number              X              Y              Z
 -------------------------------------------------------------------
      1        7          -0.070276026    0.005372550   -0.073924766
      2        6           0.042688215   -0.007765283    0.063322143
      3        6          -0.017775810   -0.001022268   -0.002384057
      4        6          -0.016422209   -0.010637522    0.013547716
      5        6           0.028461001   -0.004383818    0.014307907
      6        6           0.062465770    0.026841477   -0.053936017
      7        6          -0.006831907    0.006657073   -0.031551611
      8        6          -0.026221243   -0.002527218    0.024412578
      9        6          -0.005768145   -0.001334563    0.013049867
     10        6          -0.035801165   -0.002052233   -0.001725946
     11        6           0.044266411    0.009346423   -0.026618790
     12        6           0.016403181   -0.018318182    0.045478381
     13        7          -0.000840616   -0.022354976    0.099830747
     14        6          -0.004251794    0.016810306   -0.080015505
     15        1          -0.005202414   -0.001165916    0.003420301
     16        1          -0.008274888    0.007540584   -0.011890949
     17        1          -0.007171441   -0.003286983    0.004144897
     18        1           0.002646457   -0.000841659    0.007976405
     19        1           0.007906623    0.003122210   -0.007443300
 -------------------------------------------------------------------
 Cartesian Forces:  Max     0.099830747 RMS     0.030445053

 GradGradGradGradGradGradGradGradGradGradGradGradGradGradGradGradGradGrad
 Berny optimization.
 FormGI is forming the generalized inverse of G from B-inverse, IUseBI=4.
 Internal  Forces:  Max     0.102295521 RMS     0.021758259
 Search for a local minimum.
 Step number   1 out of a maximum of  102
 All quantities printed in internal units (Hartrees-Bohrs-Radians)
 Mixed Optimization -- RFO/linear search
 Second derivative matrix not updated -- first step.
 ITU=  0
     Eigenvalues ---    0.01652   0.01652   0.01870   0.01874   0.01895
     Eigenvalues ---    0.01905   0.01963   0.02036   0.02056   0.02067
     Eigenvalues ---    0.02077   0.02155   0.02164   0.02175   0.02176
     Eigenvalues ---    0.02193   0.04853   0.04853   0.15996   0.15997
     Eigenvalues ---    0.15998   0.16000   0.16000   0.22405   0.23288
     Eigenvalues ---    0.23441   0.23639   0.24613   0.24987   0.24994
     Eigenvalues ---    0.24998   0.34852   0.34873   0.34913   0.35121
     Eigenvalues ---    0.35416   0.38779   0.40081   0.40215   0.40558
     Eigenvalues ---    0.40746   0.42579   0.43522   0.44938   0.45516
     Eigenvalues ---    0.45609   0.45768   0.46729   0.47520   1.26461
     Eigenvalues ---    1.27121
 RFO step:  Lambda=-6.73961683D-02 EMin= 1.65192076D-02
 Linear search not attempted -- first point.
 Maximum step size (   0.300) exceeded in Quadratic search.
    -- Step size scaled by   0.816
 Iteration  1 RMS(Cart)=  0.06445594 RMS(Int)=  0.00147579
 Iteration  2 RMS(Cart)=  0.00229928 RMS(Int)=  0.00032687
 Iteration  3 RMS(Cart)=  0.00000194 RMS(Int)=  0.00032687
 Iteration  4 RMS(Cart)=  0.00000000 RMS(Int)=  0.00032687
 Variable       Old X    -DE/DX   Delta X   Delta X   Delta X     New X
                                 (Linear)    (Quad)   (Total)
    R1        2.19596   0.10212   0.00000   0.06255   0.06255   2.25851
    R2        2.70802   0.02757   0.00000   0.04756   0.04756   2.75559
    R3        2.66171  -0.00081   0.00000  -0.00406  -0.00440   2.65732
    R4        2.68653   0.00569   0.00000   0.00837   0.00787   2.69440
    R5        2.05881   0.00615   0.00000   0.01205   0.01205   2.07086
    R6        2.64356   0.05479   0.00000   0.08342   0.08357   2.72713
    R7        2.61641   0.02593   0.00000   0.03941   0.03990   2.65631
    R8        2.05479   0.01220   0.00000   0.02377   0.02377   2.07856
    R9        2.63899   0.05676   0.00000   0.09009   0.09043   2.72942
   R10        2.66232   0.06057   0.00000   0.10065   0.10072   2.76304
   R11        2.63304   0.04863   0.00000   0.07617   0.07647   2.70951
   R12        2.68479   0.01426   0.00000   0.02334   0.02323   2.70803
   R13        2.66508  -0.00119   0.00000  -0.00402  -0.00433   2.66075
   R14        2.05916   0.00869   0.00000   0.01704   0.01704   2.07620
   R15        2.63292   0.04851   0.00000   0.07231   0.07210   2.70502
   R16        2.71444   0.02075   0.00000   0.03617   0.03617   2.75060
   R17        2.63358   0.00305   0.00000   0.00497   0.00506   2.63864
   R18        2.05817   0.00655   0.00000   0.01282   0.01282   2.07099
   R19        2.05004   0.01059   0.00000   0.02049   0.02049   2.07053
   R20        2.19403   0.10230   0.00000   0.06235   0.06235   2.25638
    A1        2.11110  -0.00485   0.00000  -0.02130  -0.02223   2.08887
    A2        2.07875   0.00391   0.00000   0.01600   0.01646   2.09521
    A3        2.09318   0.00094   0.00000   0.00530   0.00576   2.09894
    A4        2.14502  -0.01747   0.00000  -0.04084  -0.04083   2.10419
    A5        2.04819   0.01034   0.00000   0.03072   0.03072   2.07891
    A6        2.08973   0.00718   0.00000   0.01068   0.01035   2.10008
    A7        2.09008   0.02340   0.00000   0.06464   0.06521   2.15529
    A8        2.11711  -0.02168   0.00000  -0.06799  -0.06839   2.04872
    A9        2.07566  -0.00166   0.00000   0.00390   0.00350   2.07916
   A10        2.11075  -0.04563   0.00000  -0.10910  -0.10777   2.00298
   A11        2.11165   0.01580   0.00000   0.04413   0.04402   2.15567
   A12        2.05028   0.01049   0.00000   0.02042   0.02009   2.07037
   A13        2.12119  -0.02628   0.00000  -0.06448  -0.06406   2.05713
   A14        2.05062   0.00396   0.00000   0.00938   0.00856   2.05918
   A15        2.18403  -0.01628   0.00000  -0.04353  -0.04324   2.14079
   A16        2.04845   0.01231   0.00000   0.03396   0.03437   2.08282
   A17        2.11033   0.00065   0.00000  -0.00224  -0.00273   2.10761
   A18        2.09447   0.00080   0.00000   0.00515   0.00536   2.09982
   A19        2.07838  -0.00144   0.00000  -0.00286  -0.00266   2.07571
   A20        2.09049   0.00416   0.00000   0.00467   0.00410   2.09459
   A21        2.13173  -0.00934   0.00000  -0.02097  -0.02069   2.11104
   A22        2.06090   0.00519   0.00000   0.01637   0.01665   2.07755
   A23        2.09553   0.00080   0.00000  -0.00013  -0.00028   2.09525
   A24        2.11618  -0.00572   0.00000  -0.01902  -0.01895   2.09723
   A25        2.07146   0.00492   0.00000   0.01915   0.01922   2.09068
   A26        2.09852   0.00836   0.00000   0.02826   0.02861   2.12714
   A27        2.10201  -0.00815   0.00000  -0.02836  -0.02856   2.07344
   A28        2.08256  -0.00019   0.00000   0.00025   0.00004   2.08260
   A29        3.06354  -0.00171   0.00000  -0.01658  -0.01658   3.04696
   A30        3.09562   0.00287   0.00000   0.02017   0.02017   3.11580
   A31        3.17479  -0.00290   0.00000  -0.02818  -0.02818   3.14661
   A32        3.11947   0.00139   0.00000   0.00980   0.00980   3.12927
    D1        3.08053   0.00201   0.00000   0.01424   0.01367   3.09421
    D2       -0.03648  -0.00120   0.00000  -0.01422  -0.01402  -0.05051
    D3       -0.04186   0.00194   0.00000   0.01449   0.01421  -0.02765
    D4        3.12431  -0.00127   0.00000  -0.01397  -0.01349   3.11082
    D5       -0.02367  -0.00010   0.00000  -0.00383  -0.00332  -0.02699
    D6        3.13254   0.00134   0.00000   0.01202   0.01225  -3.13840
    D7        3.09856   0.00000   0.00000  -0.00397  -0.00374   3.09482
    D8       -0.02842   0.00144   0.00000   0.01188   0.01183  -0.01658
    D9       -3.05399  -0.00022   0.00000  -0.00655  -0.00686  -3.06085
   D10        0.05948   0.00218   0.00000   0.01622   0.01567   0.07514
   D11        0.06437   0.00243   0.00000   0.01937   0.01945   0.08382
   D12       -3.10535   0.00483   0.00000   0.04214   0.04197  -3.06338
   D13       -0.03165   0.00032   0.00000   0.00006   0.00008  -0.03157
   D14        3.13740  -0.00169   0.00000  -0.02097  -0.02168   3.11572
   D15       -0.03048  -0.00197   0.00000  -0.02045  -0.02043  -0.05090
   D16        3.09848  -0.00139   0.00000  -0.01495  -0.01449   3.08400
   D17        0.05704   0.00266   0.00000   0.02347   0.02403   0.08107
   D18       -3.09801   0.00109   0.00000   0.00823   0.00834  -3.08967
   D19       -3.07140   0.00177   0.00000   0.01709   0.01753  -3.05387
   D20        0.05673   0.00021   0.00000   0.00185   0.00183   0.05856
   D21        3.11998  -0.00126   0.00000  -0.01164  -0.01164   3.10834
   D22       -0.03674   0.00012   0.00000  -0.00023  -0.00032  -0.03706
   D23       -0.03432  -0.00035   0.00000  -0.00527  -0.00524  -0.03956
   D24        3.09214   0.00102   0.00000   0.00614   0.00608   3.09822
   D25        3.10008  -0.00184   0.00000  -0.01663  -0.01667   3.08341
   D26       -0.04539  -0.00027   0.00000  -0.00284  -0.00284  -0.04822
   D27       -0.02692  -0.00034   0.00000  -0.00062  -0.00068  -0.02760
   D28        3.11081   0.00123   0.00000   0.01317   0.01314   3.12395
   D29       -0.02517   0.00000   0.00000   0.00089   0.00089  -0.02428
   D30        3.10431   0.00110   0.00000   0.00862   0.00854   3.11285
   D31        3.12025  -0.00156   0.00000  -0.01279  -0.01276   3.10749
   D32       -0.03345  -0.00046   0.00000  -0.00506  -0.00511  -0.03856
   D33        0.04912  -0.00026   0.00000  -0.00468  -0.00467   0.04446
   D34       -3.09954  -0.00013   0.00000  -0.00431  -0.00429  -3.10383
   D35       -3.08085  -0.00121   0.00000  -0.01185  -0.01191  -3.09276
   D36        0.05368  -0.00108   0.00000  -0.01147  -0.01154   0.04214
   D37       -0.02008   0.00129   0.00000   0.00845   0.00848  -0.01160
   D38        3.13647   0.00000   0.00000  -0.00258  -0.00265   3.13382
   D39        3.12840   0.00121   0.00000   0.00824   0.00826   3.13666
   D40        0.00176  -0.00009   0.00000  -0.00279  -0.00287  -0.00111
         Item               Value     Threshold  Converged?
 Maximum Force            0.102296     0.000450     NO 
 RMS     Force            0.021758     0.000300     NO 
 Maximum Displacement     0.234170     0.001800     NO 
 RMS     Displacement     0.063876     0.001200     NO 
 Predicted change in Energy=-3.580323D-02
 GradGradGradGradGradGradGradGradGradGradGradGradGradGradGradGradGradGrad

                          Input orientation:                          
 ---------------------------------------------------------------------
 Center     Atomic      Atomic             Coordinates (Angstroms)
 Number     Number       Type             X           Y           Z
 ---------------------------------------------------------------------
      1          7           0        3.789875   -0.035820   -1.524276
      2          6           0        4.645357   -0.100961   -0.692232
      3          6           0        5.597029   -0.512492    1.569146
      4          6           0        5.778333   -0.141904    0.224837
      5          6           0        7.090467    0.207071   -0.264204
      6          6           0        8.258622    0.109335    0.511510
      7          6           0        8.047536   -0.334243    1.869750
      8          6           0        6.726111   -0.602511    2.435182
      9          6           0        6.615302   -0.977600    3.813801
     10          6           0        7.763859   -1.121593    4.615409
     11          6           0        9.062699   -0.921817    4.047863
     12          6           0        9.190087   -0.532190    2.713082
     13          7           0        7.595062   -1.739378    7.186169
     14          6           0        7.654462   -1.467674    6.024986
     15          1           0        4.594262   -0.748644    1.942761
     16          1           0        7.165465    0.561945   -1.302604
     17          1           0        5.629033   -1.166711    4.259454
     18          1           0        9.959667   -1.067827    4.660373
     19          1           0       10.189783   -0.375507    2.292884
 ---------------------------------------------------------------------
                    Distance matrix (angstroms):
                    1          2          3          4          5
     1  N    0.000000
     2  C    1.195152   0.000000
     3  C    3.614178   2.487744   0.000000
     4  C    2.650399   1.458193   1.406192   0.000000
     5  C    3.541282   2.501331   2.471701   1.443136   0.000000
     6  C    4.912758   3.814302   2.930758   2.509409   1.405657
     7  C    5.453085   4.265325   2.475302   2.809273   2.400575
     8  C    4.961847   3.789698   1.425815   2.448687   2.841630
     9  C    6.112696   4.995349   2.508322   3.778831   4.273096
    10  C    7.393726   6.240017   3.787595   4.917238   5.101905
    11  C    7.722460   6.531096   4.280473   5.100083   4.874219
    12  C    6.882142   5.695323   3.770815   4.240726   3.717411
    13  N    9.656780   8.570553   6.086734   7.369706   7.716951
    14  C    8.600965   7.486230   4.999991   6.238530   6.532746
    15  H    3.629808   2.713908   1.095854   2.172883   3.466284
    16  H    3.435269   2.676368   3.444033   2.180050   1.099925
    17  H    6.173568   5.159713   2.768895   4.165411   4.948388
    18  H    8.796662   7.604414   5.375565   6.165621   5.840303
    19  H    7.459552   6.302933   4.651446   4.877733   4.060032
                    6          7          8          9         10
     6  C    0.000000
     7  C    1.444346   0.000000
     8  C    2.560434   1.462136   0.000000
     9  C    3.845394   2.498907   1.433025   0.000000
    10  C    4.312999   2.870372   2.469769   1.408011   0.000000
    11  C    3.770359   2.473858   2.856980   2.459197   1.431434
    12  C    2.475097   1.433812   2.480594   2.835399   2.449565
    13  N    6.957666   5.517558   4.961796   3.593480   2.649331
    14  C    5.766315   4.324946   3.807498   2.491860   1.455557
    15  H    4.026430   3.478816   2.192856   2.763659   4.162750
    16  H    2.165839   3.412482   3.939548   5.371265   6.181850
    17  H    4.752905   3.500406   2.202242   1.098679   2.164768
    18  H    4.635983   3.461499   3.952706   3.451030   2.196926
    19  H    2.671657   2.184026   3.474018   3.930982   3.440331
                   11         12         13         14         15
    11  C    0.000000
    12  C    1.396308   0.000000
    13  N    3.559681   4.899990   0.000000
    14  C    2.487993   3.768552   1.194025   0.000000
    15  H    4.942506   4.664960   6.122065   5.152319   0.000000
    16  H    5.867584   4.628387   8.805675   7.619190   4.342940
    17  H    3.448884   3.933825   3.571957   2.703709   2.571497
    18  H    1.095920   2.161273   3.524483   2.708508   6.022862
    19  H    2.156090   1.095678   5.704118   4.642119   5.618868
                   16         17         18         19
    16  H    0.000000
    17  H    6.023733   0.000000
    18  H    6.783865   4.350276   0.000000
    19  H    4.790913   5.029298   2.477351   0.000000
 Stoichiometry    C12H5N2(1-)
 Framework group  C1[X(C12H5N2)]
 Deg. of freedom    51
 Full point group                 C1      NOp   1
 Largest Abelian subgroup         C1      NOp   1
 Largest concise Abelian subgroup C1      NOp   1
                         Standard orientation:                         
 ---------------------------------------------------------------------
 Center     Atomic      Atomic             Coordinates (Angstroms)
 Number     Number       Type             X           Y           Z
 ---------------------------------------------------------------------
      1          7           0        4.850874   -1.377641    0.103738
      2          6           0        3.748780   -0.918824    0.046602
      3          6           0        1.262520   -0.966079   -0.025156
      4          6           0        2.463307   -0.234311   -0.026394
      5          6           0        2.438483    1.206524   -0.103977
      6          6           0        1.254620    1.964093   -0.083260
      7          6           0        0.039524    1.185980   -0.018336
      8          6           0        0.015002   -0.275812   -0.038534
      9          6           0       -1.245769   -0.956987   -0.034260
     10          6           0       -2.453688   -0.235733    0.022470
     11          6           0       -2.431158    1.193038    0.106788
     12          6           0       -1.213562    1.875956    0.079256
     13          7           0       -4.804457   -1.455730   -0.044243
     14          6           0       -3.737245   -0.921409   -0.008786
     15          1           0        1.287393   -2.061242    0.004766
     16          1           0        3.405249    1.725909   -0.177717
     17          1           0       -1.283123   -2.054573   -0.065954
     18          1           0       -3.368756    1.754780    0.186776
     19          1           0       -1.210559    2.970097    0.137178
 ---------------------------------------------------------------------
 Rotational constants (GHZ):      1.9055488      0.3663843      0.3075895
 Standard basis: STO-3G (5D, 7F)
 There are    75 symmetry adapted cartesian basis functions of A   symmetry.
 There are    75 symmetry adapted basis functions of A   symmetry.
    75 basis functions,   225 primitive gaussians,    75 cartesian basis functions
    46 alpha electrons       46 beta electrons
       nuclear repulsion energy       683.9414448093 Hartrees.
 NAtoms=   19 NActive=   19 NUniq=   19 SFac= 1.00D+00 NAtFMM=   60 NAOKFM=F Big=F
 Integral buffers will be    131072 words long.
 Raffenetti 2 integral format.
 Two-electron integral symmetry is turned on.
 One-electron integrals computed using PRISM.
 NBasis=    75 RedAO= T EigKep=  1.73D-01  NBF=    75
 NBsUse=    75 1.00D-06 EigRej= -1.00D+00 NBFU=    75
 Initial guess from the checkpoint file:  "/tmp/bnp.472639.sequoia/Gau-15757.chk"
 B after Tr=     0.000000    0.000000    0.000000
         Rot=    0.999999   -0.000861    0.000141    0.000563 Ang=  -0.12 deg.
 ExpMin= 1.69D-01 ExpMax= 9.91D+01 ExpMxC= 9.91D+01 IAcc=1 IRadAn=         1 AccDes= 0.00D+00
 Harris functional with IExCor=  402 and IRadAn=       1 diagonalized for initial guess.
 HarFok:  IExCor=  402 AccDes= 0.00D+00 IRadAn=         1 IDoV= 1 UseB2=F ITyADJ=14
 ICtDFT=  3500011 ScaDFX=  1.000000  1.000000  1.000000  1.000000
 FoFCou: FMM=F IPFlag=           0 FMFlag=      100000 FMFlg1=           0
         NFxFlg=           0 DoJE=T BraDBF=F KetDBF=T FulRan=T
         wScrn=  0.000000 ICntrl=     500 IOpCl=  0 I1Cent=   200000004 NGrid=           0
         NMat0=    1 NMatS0=      1 NMatT0=    0 NMatD0=    1 NMtDS0=    0 NMtDT0=    0
 Petite list used in FoFCou.
 Keep R1 ints in memory in canonical form, NReq=4993994.
 Requested convergence on RMS density matrix=1.00D-08 within 128 cycles.
 Requested convergence on MAX density matrix=1.00D-06.
 Requested convergence on             energy=1.00D-06.
 No special actions if energy rises.
 Integral accuracy reduced to 1.0D-05 until final iterations.
 Initial convergence to 1.0D-05 achieved.  Increase integral accuracy.
 SCF Done:  E(RB3LYP) =  -562.510041832     A.U. after   20 cycles
            NFock= 20  Conv=0.48D-08     -V/T= 2.0139
 Calling FoFJK, ICntrl=      2127 FMM=F ISym2X=0 I1Cent= 0 IOpClX= 0 NMat=1 NMatS=1 NMatT=0.
 ***** Axes restored to original set *****
 -------------------------------------------------------------------
 Center     Atomic                   Forces (Hartrees/Bohr)
 Number     Number              X              Y              Z
 -------------------------------------------------------------------
      1        7          -0.010983381    0.000948769   -0.009236536
      2        6           0.004859760   -0.001510202    0.007244944
      3        6          -0.007170579   -0.000740611   -0.002296038
      4        6          -0.001016253   -0.000943181   -0.001552863
      5        6           0.003189726   -0.003887256    0.012336534
      6        6           0.025988123    0.009227617   -0.019427353
      7        6          -0.011707545   -0.000224236   -0.007556026
      8        6           0.002498076    0.000198747    0.008151847
      9        6           0.001199653   -0.000113528    0.005137153
     10        6          -0.009209499   -0.000233495   -0.002405797
     11        6           0.013183179    0.005089519   -0.013584750
     12        6          -0.002980233   -0.008337167    0.019598863
     13        7          -0.001356806   -0.003406474    0.013284076
     14        6          -0.000177505    0.001442845   -0.008823807
     15        1          -0.000482082   -0.000476232    0.001390185
     16        1          -0.005284130    0.001792886   -0.002733217
     17        1          -0.001364779   -0.000049556   -0.000149169
     18        1          -0.000850528   -0.000129928    0.003329452
     19        1           0.001664803    0.001351484   -0.002707501
 -------------------------------------------------------------------
 Cartesian Forces:  Max     0.025988123 RMS     0.007528837

 GradGradGradGradGradGradGradGradGradGradGradGradGradGradGradGradGradGrad
 Berny optimization.
 Using GEDIIS/GDIIS optimizer.
 FormGI is forming the generalized inverse of G from B-inverse, IUseBI=4.
 Internal  Forces:  Max     0.019338710 RMS     0.004997617
 Search for a local minimum.
 Step number   2 out of a maximum of  102
 All quantities printed in internal units (Hartrees-Bohrs-Radians)
 Mixed Optimization -- RFO/linear search
 Update second derivatives using D2CorX and points    1    2
 DE= -3.37D-02 DEPred=-3.58D-02 R= 9.42D-01
 TightC=F SS=  1.41D+00  RLast= 3.11D-01 DXNew= 5.0454D-01 9.3372D-01
 Trust test= 9.42D-01 RLast= 3.11D-01 DXMaxT set to 5.05D-01
 ITU=  1  0
 Use linear search instead of GDIIS.
     Eigenvalues ---    0.01651   0.01659   0.01872   0.01875   0.01900
     Eigenvalues ---    0.01906   0.01971   0.02039   0.02058   0.02077
     Eigenvalues ---    0.02081   0.02163   0.02169   0.02175   0.02177
     Eigenvalues ---    0.02193   0.04853   0.04855   0.15824   0.15997
     Eigenvalues ---    0.16000   0.16000   0.16014   0.21851   0.22771
     Eigenvalues ---    0.23397   0.23648   0.24302   0.24901   0.25000
     Eigenvalues ---    0.25096   0.34863   0.34887   0.34930   0.35145
     Eigenvalues ---    0.35424   0.38870   0.40101   0.40305   0.40632
     Eigenvalues ---    0.40877   0.42615   0.43362   0.44855   0.44983
     Eigenvalues ---    0.45737   0.46485   0.47486   0.50327   1.26752
     Eigenvalues ---    1.32217
 RFO step:  Lambda=-4.17386153D-03 EMin= 1.65073079D-02
 Quartic linear search produced a step of  0.37496.
 Iteration  1 RMS(Cart)=  0.05772720 RMS(Int)=  0.00370013
 Iteration  2 RMS(Cart)=  0.00433002 RMS(Int)=  0.00035891
 Iteration  3 RMS(Cart)=  0.00003104 RMS(Int)=  0.00035831
 Iteration  4 RMS(Cart)=  0.00000000 RMS(Int)=  0.00035831
 Variable       Old X    -DE/DX   Delta X   Delta X   Delta X     New X
                                 (Linear)    (Quad)   (Total)
    R1        2.25851   0.01434   0.02345  -0.01098   0.01247   2.27098
    R2        2.75559   0.00600   0.01783  -0.00088   0.01695   2.77254
    R3        2.65732  -0.00136  -0.00165  -0.00386  -0.00582   2.65150
    R4        2.69440   0.00201   0.00295   0.00259   0.00507   2.69947
    R5        2.07086   0.00102   0.00452  -0.00140   0.00312   2.07398
    R6        2.72713   0.00874   0.03134  -0.01179   0.01970   2.74683
    R7        2.65631   0.00868   0.01496   0.00741   0.02284   2.67915
    R8        2.07856   0.00280   0.00891   0.00024   0.00915   2.08771
    R9        2.72942   0.01805   0.03391   0.01510   0.04931   2.77873
   R10        2.76304   0.00828   0.03776  -0.01663   0.02118   2.78422
   R11        2.70951   0.01026   0.02867  -0.00304   0.02587   2.73538
   R12        2.70803   0.00201   0.00871  -0.00354   0.00512   2.71314
   R13        2.66075  -0.00435  -0.00162  -0.01214  -0.01401   2.64674
   R14        2.07620   0.00117   0.00639  -0.00302   0.00337   2.07958
   R15        2.70502   0.00933   0.02704  -0.00514   0.02170   2.72672
   R16        2.75060   0.00490   0.01356   0.00066   0.01422   2.76483
   R17        2.63864  -0.00598   0.00190  -0.01985  -0.01790   2.62074
   R18        2.07099   0.00118   0.00481  -0.00111   0.00369   2.07468
   R19        2.07053   0.00275   0.00768   0.00143   0.00911   2.07964
   R20        2.25638   0.01376   0.02338  -0.01160   0.01178   2.26816
    A1        2.08887  -0.00269  -0.00834  -0.01121  -0.02050   2.06837
    A2        2.09521   0.00255   0.00617   0.01325   0.01985   2.11506
    A3        2.09894   0.00015   0.00216  -0.00178   0.00081   2.09975
    A4        2.10419  -0.00505  -0.01531  -0.00556  -0.02098   2.08320
    A5        2.07891   0.00375   0.01152   0.00936   0.02075   2.09966
    A6        2.10008   0.00130   0.00388  -0.00388  -0.00046   2.09962
    A7        2.15529   0.01123   0.02445   0.03544   0.06034   2.21563
    A8        2.04872  -0.01116  -0.02564  -0.04685  -0.07284   1.97588
    A9        2.07916  -0.00007   0.00131   0.01147   0.01243   2.09159
   A10        2.00298  -0.01934  -0.04041  -0.05238  -0.09157   1.91141
   A11        2.15567   0.00886   0.01650   0.03053   0.04672   2.20238
   A12        2.07037   0.00096   0.00753  -0.00684   0.00036   2.07073
   A13        2.05713  -0.00982  -0.02402  -0.02354  -0.04727   2.00986
   A14        2.05918   0.00059   0.00321  -0.00129   0.00103   2.06022
   A15        2.14079  -0.00521  -0.01621  -0.00971  -0.02568   2.11511
   A16        2.08282   0.00461   0.01289   0.01058   0.02387   2.10669
   A17        2.10761   0.00043  -0.00102   0.00334   0.00189   2.10949
   A18        2.09982  -0.00096   0.00201  -0.00985  -0.00770   2.09212
   A19        2.07571   0.00052  -0.00100   0.00641   0.00555   2.08127
   A20        2.09459  -0.00040   0.00154  -0.00628  -0.00529   2.08930
   A21        2.11104  -0.00223  -0.00776  -0.00147  -0.00898   2.10206
   A22        2.07755   0.00263   0.00624   0.00777   0.01427   2.09182
   A23        2.09525  -0.00071  -0.00010  -0.00633  -0.00666   2.08860
   A24        2.09723  -0.00288  -0.00710  -0.01475  -0.02175   2.07548
   A25        2.09068   0.00359   0.00721   0.02112   0.02843   2.11911
   A26        2.12714   0.00590   0.01073   0.02338   0.03422   2.16136
   A27        2.07344  -0.00505  -0.01071  -0.02237  -0.03332   2.04012
   A28        2.08260  -0.00085   0.00002  -0.00092  -0.00115   2.08145
   A29        3.04696   0.00210  -0.00622   0.15448   0.14827   3.19522
   A30        3.11580   0.00154   0.00756   0.02776   0.03533   3.15112
   A31        3.14661  -0.00096  -0.01057  -0.03770  -0.04826   3.09835
   A32        3.12927   0.00050   0.00368   0.00696   0.01063   3.13991
    D1        3.09421   0.00084   0.00513   0.02965   0.03454   3.12875
    D2       -0.05051  -0.00001  -0.00526   0.00190  -0.00260  -0.05310
    D3       -0.02765   0.00061   0.00533   0.01466   0.01984  -0.00781
    D4        3.11082  -0.00023  -0.00506  -0.01308  -0.01730   3.09352
    D5       -0.02699  -0.00029  -0.00125  -0.02830  -0.02868  -0.05567
    D6       -3.13840   0.00007   0.00459  -0.01232  -0.00741   3.13738
    D7        3.09482  -0.00003  -0.00140  -0.01311  -0.01389   3.08093
    D8       -0.01658   0.00032   0.00444   0.00287   0.00738  -0.00920
    D9       -3.06085   0.00006  -0.00257   0.00005  -0.00239  -3.06324
   D10        0.07514   0.00056   0.00587   0.01195   0.01733   0.09247
   D11        0.08382   0.00091   0.00729   0.02742   0.03518   0.11900
   D12       -3.06338   0.00141   0.01574   0.03932   0.05489  -3.00848
   D13       -0.03157  -0.00044   0.00003  -0.02351  -0.02353  -0.05510
   D14        3.11572  -0.00091  -0.00813  -0.03543  -0.04418   3.07154
   D15       -0.05090  -0.00041  -0.00766  -0.00772  -0.01596  -0.06686
   D16        3.08400   0.00024  -0.00543   0.01867   0.01386   3.09785
   D17        0.08107   0.00105   0.00901   0.03385   0.04353   0.12461
   D18       -3.08967   0.00054   0.00313   0.01806   0.02149  -3.06819
   D19       -3.05387   0.00038   0.00657   0.00759   0.01447  -3.03940
   D20        0.05856  -0.00014   0.00069  -0.00820  -0.00757   0.05099
   D21        3.10834  -0.00072  -0.00436  -0.02568  -0.02963   3.07872
   D22       -0.03706  -0.00002  -0.00012  -0.00086  -0.00087  -0.03793
   D23       -0.03956  -0.00004  -0.00197  -0.00058  -0.00270  -0.04226
   D24        3.09822   0.00066   0.00228   0.02423   0.02606   3.12428
   D25        3.08341  -0.00063  -0.00625  -0.01938  -0.02549   3.05792
   D26       -0.04822  -0.00018  -0.00106  -0.00772  -0.00871  -0.05694
   D27       -0.02760  -0.00020  -0.00026  -0.00299  -0.00325  -0.03085
   D28        3.12395   0.00025   0.00493   0.00867   0.01353   3.13748
   D29       -0.02428   0.00034   0.00034   0.02153   0.02197  -0.00231
   D30        3.11285   0.00064   0.00320   0.02715   0.03033  -3.14000
   D31        3.10749  -0.00011  -0.00479   0.00994   0.00522   3.11271
   D32       -0.03856   0.00019  -0.00192   0.01556   0.01358  -0.02498
   D33        0.04446  -0.00057  -0.00175  -0.03040  -0.03209   0.01237
   D34       -3.10383  -0.00043  -0.00161  -0.02496  -0.02661  -3.13044
   D35       -3.09276  -0.00085  -0.00447  -0.03589  -0.04035  -3.13311
   D36        0.04214  -0.00072  -0.00433  -0.03045  -0.03487   0.00728
   D37       -0.01160   0.00061   0.00318   0.01993   0.02324   0.01164
   D38        3.13382  -0.00008  -0.00099  -0.00496  -0.00610   3.12773
   D39        3.13666   0.00050   0.00310   0.01465   0.01781  -3.12871
   D40       -0.00111  -0.00019  -0.00108  -0.01025  -0.01152  -0.01262
         Item               Value     Threshold  Converged?
 Maximum Force            0.019339     0.000450     NO 
 RMS     Force            0.004998     0.000300     NO 
 Maximum Displacement     0.299533     0.001800     NO 
 RMS     Displacement     0.058567     0.001200     NO 
 Predicted change in Energy=-4.040329D-03
 GradGradGradGradGradGradGradGradGradGradGradGradGradGradGradGradGradGrad

                          Input orientation:                          
 ---------------------------------------------------------------------
 Center     Atomic      Atomic             Coordinates (Angstroms)
 Number     Number       Type             X           Y           Z
 ---------------------------------------------------------------------
      1          7           0        3.661997   -0.054137   -1.365770
      2          6           0        4.652462   -0.112677   -0.687713
      3          6           0        5.616990   -0.529319    1.556379
      4          6           0        5.808134   -0.166369    0.214567
      5          6           0        7.130249    0.201658   -0.264396
      6          6           0        8.350234    0.118278    0.453019
      7          6           0        8.083175   -0.339200    1.824729
      8          6           0        6.756971   -0.591232    2.414990
      9          6           0        6.626819   -0.951117    3.798780
     10          6           0        7.757789   -1.106880    4.610145
     11          6           0        9.072523   -0.906534    4.050374
     12          6           0        9.203560   -0.547048    2.717365
     13          7           0        7.485390   -1.776962    7.173350
     14          6           0        7.614429   -1.475775    6.018683
     15          1           0        4.618041   -0.766472    1.944160
     16          1           0        7.125677    0.593267   -1.297419
     17          1           0        5.629196   -1.132504    4.226411
     18          1           0        9.950472   -1.042378    4.695416
     19          1           0       10.208904   -0.383119    2.300819
 ---------------------------------------------------------------------
                    Distance matrix (angstroms):
                    1          2          3          4          5
     1  N    0.000000
     2  C    1.201753   0.000000
     3  C    3.547781   2.477873   0.000000
     4  C    2.667577   1.467164   1.403114   0.000000
     5  C    3.647908   2.533265   2.477802   1.453560   0.000000
     6  C    5.031629   3.876613   3.017848   2.569077   1.417744
     7  C    5.459612   4.258341   2.488016   2.792544   2.359033
     8  C    4.915433   3.779516   1.428497   2.433652   2.819064
     9  C    6.022236   4.972896   2.495202   3.759343   4.253438
    10  C    7.320883   6.220835   3.773868   4.899675   5.085983
    11  C    7.702921   6.528141   4.278202   5.090923   4.859811
    12  C    6.901006   5.700503   3.769840   4.235308   3.708110
    13  N    9.513308   8.520073   6.049619   7.337020   7.704617
    14  C    8.495465   7.457013   4.979729   6.218120   6.521142
    15  H    3.518108   2.712083   1.097503   2.183561   3.482267
    16  H    3.524328   2.643273   3.417675   2.144544   1.104769
    17  H    6.025383   5.112991   2.737344   4.130415   4.919400
    18  H    8.789740   7.609950   5.375487   6.164769   5.839608
    19  H    7.510932   6.314943   4.654164   4.875060   4.049741
                    6          7          8          9         10
     6  C    0.000000
     7  C    1.470440   0.000000
     8  C    2.625113   1.473344   0.000000
     9  C    3.912529   2.528299   1.435734   0.000000
    10  C    4.374208   2.907533   2.467029   1.400595   0.000000
    11  C    3.809581   2.500835   2.852311   2.459015   1.442916
    12  C    2.509599   1.447503   2.465599   2.823531   2.446688
    13  N    7.035818   5.570660   4.957675   3.578671   2.663312
    14  C    5.836012   4.370444   3.808445   2.485681   1.463085
    15  H    4.115282   3.493419   2.197137   2.740236   4.132961
    16  H    2.188421   3.396189   3.914200   5.348386   6.179755
    17  H    4.817363   3.524120   2.201386   1.100464   2.163057
    18  H    4.680365   3.496013   3.949978   3.443684   2.195289
    19  H    2.668411   2.178834   3.460085   3.924009   3.444530
                   11         12         13         14         15
    11  C    0.000000
    12  C    1.386836   0.000000
    13  N    3.609655   4.931592   0.000000
    14  C    2.514818   3.779758   1.200258   0.000000
    15  H    4.929316   4.655424   6.048735   5.107170   0.000000
    16  H    5.885448   4.662232   8.803482   7.618738   4.317981
    17  H    3.455221   3.923781   3.541925   2.696521   2.522911
    18  H    1.097874   2.171616   3.571610   2.719552   6.006692
    19  H    2.150877   1.100500   5.753424   4.663444   5.615328
                   16         17         18         19
    16  H    0.000000
    17  H    5.977494   0.000000
    18  H    6.824139   4.347588   0.000000
    19  H    4.838071   5.024262   2.497100   0.000000
 Stoichiometry    C12H5N2(1-)
 Framework group  C1[X(C12H5N2)]
 Deg. of freedom    51
 Full point group                 C1      NOp   1
 Largest Abelian subgroup         C1      NOp   1
 Largest concise Abelian subgroup C1      NOp   1
                         Standard orientation:                         
 ---------------------------------------------------------------------
 Center     Atomic      Atomic             Coordinates (Angstroms)
 Number     Number       Type             X           Y           Z
 ---------------------------------------------------------------------
      1          7           0        4.757406   -1.552769    0.071648
      2          6           0        3.740059   -0.913197    0.058889
      3          6           0        1.263192   -0.943379   -0.004923
      4          6           0        2.456344   -0.205092    0.002041
      5          6           0        2.422236    1.244687   -0.097035
      6          6           0        1.272400    2.073702   -0.072336
      7          6           0        0.065068    1.237153   -0.003563
      8          6           0        0.023321   -0.235031   -0.044498
      9          6           0       -1.231407   -0.932733   -0.058724
     10          6           0       -2.443251   -0.233236    0.002981
     11          6           0       -2.434026    1.207326    0.084843
     12          6           0       -1.225183    1.887039    0.086797
     13          7           0       -4.755429   -1.554742   -0.023233
     14          6           0       -3.716524   -0.953806   -0.010134
     15          1           0        1.273589   -2.040451    0.024050
     16          1           0        3.423365    1.696688   -0.215148
     17          1           0       -1.246580   -2.032549   -0.093298
     18          1           0       -3.391204    1.741856    0.143298
     19          1           0       -1.226373    2.986430    0.136180
 ---------------------------------------------------------------------
 Rotational constants (GHZ):      1.7785281      0.3726039      0.3083025
 Standard basis: STO-3G (5D, 7F)
 There are    75 symmetry adapted cartesian basis functions of A   symmetry.
 There are    75 symmetry adapted basis functions of A   symmetry.
    75 basis functions,   225 primitive gaussians,    75 cartesian basis functions
    46 alpha electrons       46 beta electrons
       nuclear repulsion energy       681.9562405537 Hartrees.
 NAtoms=   19 NActive=   19 NUniq=   19 SFac= 1.00D+00 NAtFMM=   60 NAOKFM=F Big=F
 Integral buffers will be    131072 words long.
 Raffenetti 2 integral format.
 Two-electron integral symmetry is turned on.
 One-electron integrals computed using PRISM.
 NBasis=    75 RedAO= T EigKep=  1.76D-01  NBF=    75
 NBsUse=    75 1.00D-06 EigRej= -1.00D+00 NBFU=    75
 Initial guess from the checkpoint file:  "/tmp/bnp.472639.sequoia/Gau-15757.chk"
 B after Tr=     0.000000    0.000000    0.000000
         Rot=    0.999999   -0.001082    0.000140    0.000352 Ang=  -0.13 deg.
 ExpMin= 1.69D-01 ExpMax= 9.91D+01 ExpMxC= 9.91D+01 IAcc=1 IRadAn=         1 AccDes= 0.00D+00
 Harris functional with IExCor=  402 and IRadAn=       1 diagonalized for initial guess.
 HarFok:  IExCor=  402 AccDes= 0.00D+00 IRadAn=         1 IDoV= 1 UseB2=F ITyADJ=14
 ICtDFT=  3500011 ScaDFX=  1.000000  1.000000  1.000000  1.000000
 FoFCou: FMM=F IPFlag=           0 FMFlag=      100000 FMFlg1=           0
         NFxFlg=           0 DoJE=T BraDBF=F KetDBF=T FulRan=T
         wScrn=  0.000000 ICntrl=     500 IOpCl=  0 I1Cent=   200000004 NGrid=           0
         NMat0=    1 NMatS0=      1 NMatT0=    0 NMatD0=    1 NMtDS0=    0 NMtDT0=    0
 Petite list used in FoFCou.
 Keep R1 ints in memory in canonical form, NReq=4993994.
 Requested convergence on RMS density matrix=1.00D-08 within 128 cycles.
 Requested convergence on MAX density matrix=1.00D-06.
 Requested convergence on             energy=1.00D-06.
 No special actions if energy rises.
 Integral accuracy reduced to 1.0D-05 until final iterations.
 Initial convergence to 1.0D-05 achieved.  Increase integral accuracy.
 SCF Done:  E(RB3LYP) =  -562.513599620     A.U. after   18 cycles
            NFock= 18  Conv=0.64D-08     -V/T= 2.0140
 Calling FoFJK, ICntrl=      2127 FMM=F ISym2X=0 I1Cent= 0 IOpClX= 0 NMat=1 NMatS=1 NMatT=0.
 ***** Axes restored to original set *****
 -------------------------------------------------------------------
 Center     Atomic                   Forces (Hartrees/Bohr)
 Number     Number              X              Y              Z
 -------------------------------------------------------------------
      1        7           0.004397864    0.000309621   -0.001815716
      2        6          -0.006271175   -0.001209137    0.005976993
      3        6          -0.003739366   -0.000281749   -0.000150364
      4        6           0.004696016    0.002990088   -0.005091113
      5        6          -0.004428191    0.000405667   -0.000815842
      6        6           0.002194285    0.001018036   -0.002481234
      7        6          -0.004463876   -0.002333645    0.005521570
      8        6           0.003230877   -0.000265249   -0.001575127
      9        6          -0.000148931   -0.000832860    0.000651670
     10        6           0.000105627   -0.000048495    0.002532235
     11        6           0.001735734   -0.000081164   -0.001498412
     12        6           0.002353258    0.000861898    0.001595462
     13        7           0.000674509    0.000180228   -0.000946924
     14        6          -0.001324859    0.000041366    0.000007015
     15        1           0.000342339   -0.000255606    0.000009323
     16        1           0.001155873   -0.000841165   -0.000633363
     17        1           0.000095252    0.000418700   -0.000914788
     18        1          -0.000360987    0.000126408   -0.000346798
     19        1          -0.000244250   -0.000202942   -0.000024588
 -------------------------------------------------------------------
 Cartesian Forces:  Max     0.006271175 RMS     0.002295521

 GradGradGradGradGradGradGradGradGradGradGradGradGradGradGradGradGradGrad
 Berny optimization.
 Using GEDIIS/GDIIS optimizer.
 FormGI is forming the generalized inverse of G from B-inverse, IUseBI=4.
 Internal  Forces:  Max     0.008731674 RMS     0.001325682
 Search for a local minimum.
 Step number   3 out of a maximum of  102
 All quantities printed in internal units (Hartrees-Bohrs-Radians)
 Mixed Optimization -- RFO/linear search
 Update second derivatives using D2CorX and points    1    2    3
 DE= -3.56D-03 DEPred=-4.04D-03 R= 8.81D-01
 TightC=F SS=  1.41D+00  RLast= 2.90D-01 DXNew= 8.4853D-01 8.6887D-01
 Trust test= 8.81D-01 RLast= 2.90D-01 DXMaxT set to 8.49D-01
 ITU=  1  1  0
 Use linear search instead of GDIIS.
     Eigenvalues ---    0.01654   0.01805   0.01876   0.01883   0.01904
     Eigenvalues ---    0.01939   0.01972   0.02046   0.02064   0.02080
     Eigenvalues ---    0.02119   0.02169   0.02172   0.02175   0.02179
     Eigenvalues ---    0.02415   0.04851   0.04895   0.15393   0.15998
     Eigenvalues ---    0.15999   0.16000   0.16118   0.19854   0.22569
     Eigenvalues ---    0.23457   0.23604   0.24093   0.24934   0.25005
     Eigenvalues ---    0.25188   0.34863   0.34887   0.34941   0.35090
     Eigenvalues ---    0.35403   0.38673   0.39725   0.40176   0.40496
     Eigenvalues ---    0.40842   0.42218   0.42669   0.43968   0.45098
     Eigenvalues ---    0.45803   0.46437   0.47390   0.49464   1.26807
     Eigenvalues ---    1.31991
 RFO step:  Lambda=-3.15222750D-03 EMin= 1.65387842D-02
 Quartic linear search produced a step of -0.16478.
 Iteration  1 RMS(Cart)=  0.03913312 RMS(Int)=  0.01628070
 Iteration  2 RMS(Cart)=  0.03266819 RMS(Int)=  0.00258576
 Iteration  3 RMS(Cart)=  0.00254670 RMS(Int)=  0.00004601
 Iteration  4 RMS(Cart)=  0.00000378 RMS(Int)=  0.00004597
 Iteration  5 RMS(Cart)=  0.00000000 RMS(Int)=  0.00004597
 Variable       Old X    -DE/DX   Delta X   Delta X   Delta X     New X
                                 (Linear)    (Quad)   (Total)
    R1        2.27098  -0.00258  -0.00206   0.00588   0.00383   2.27481
    R2        2.77254  -0.00111  -0.00279   0.00680   0.00401   2.77655
    R3        2.65150   0.00153   0.00096   0.00005   0.00102   2.65252
    R4        2.69947   0.00245  -0.00084   0.00738   0.00656   2.70603
    R5        2.07398  -0.00025  -0.00051   0.00114   0.00062   2.07460
    R6        2.74683  -0.00155  -0.00325   0.00857   0.00532   2.75215
    R7        2.67915   0.00217  -0.00376   0.01573   0.01195   2.69110
    R8        2.08771   0.00028  -0.00151   0.00554   0.00404   2.09175
    R9        2.77873   0.00404  -0.00813   0.03302   0.02488   2.80361
   R10        2.78422  -0.00273  -0.00349   0.00701   0.00351   2.78772
   R11        2.73538   0.00182  -0.00426   0.01745   0.01317   2.74855
   R12        2.71314   0.00045  -0.00084   0.00378   0.00294   2.71609
   R13        2.64674   0.00115   0.00231  -0.00437  -0.00204   2.64470
   R14        2.07958  -0.00051  -0.00056   0.00075   0.00019   2.07977
   R15        2.72672   0.00165  -0.00358   0.01523   0.01167   2.73839
   R16        2.76483  -0.00090  -0.00234   0.00565   0.00331   2.76814
   R17        2.62074  -0.00097   0.00295  -0.00987  -0.00693   2.61381
   R18        2.07468  -0.00051  -0.00061   0.00080   0.00019   2.07487
   R19        2.07964  -0.00024  -0.00150   0.00418   0.00268   2.08232
   R20        2.26816  -0.00103  -0.00194   0.00662   0.00468   2.27284
    A1        2.06837  -0.00019   0.00338  -0.01113  -0.00771   2.06066
    A2        2.11506   0.00029  -0.00327   0.01111   0.00782   2.12288
    A3        2.09975  -0.00010  -0.00013   0.00003  -0.00012   2.09963
    A4        2.08320  -0.00212   0.00346  -0.01786  -0.01441   2.06879
    A5        2.09966   0.00143  -0.00342   0.01537   0.01194   2.11160
    A6        2.09962   0.00071   0.00008   0.00280   0.00290   2.10252
    A7        2.21563  -0.00084  -0.00994   0.02709   0.01712   2.23275
    A8        1.97588   0.00148   0.01200  -0.02827  -0.01629   1.95959
    A9        2.09159  -0.00064  -0.00205   0.00132  -0.00075   2.09084
   A10        1.91141   0.00061   0.01509  -0.04163  -0.02657   1.88484
   A11        2.20238  -0.00075  -0.00770   0.02060   0.01293   2.21532
   A12        2.07073  -0.00070  -0.00006  -0.00184  -0.00187   2.06886
   A13        2.00986   0.00145   0.00779  -0.01900  -0.01124   1.99862
   A14        2.06022   0.00051  -0.00017   0.00257   0.00243   2.06265
   A15        2.11511   0.00021   0.00423  -0.01175  -0.00752   2.10759
   A16        2.10669  -0.00071  -0.00393   0.00928   0.00533   2.11202
   A17        2.10949   0.00047  -0.00031   0.00244   0.00216   2.11165
   A18        2.09212  -0.00112   0.00127  -0.00890  -0.00765   2.08448
   A19        2.08127   0.00066  -0.00092   0.00654   0.00562   2.08689
   A20        2.08930  -0.00039   0.00087  -0.00341  -0.00251   2.08679
   A21        2.10206  -0.00019   0.00148  -0.00545  -0.00399   2.09807
   A22        2.09182   0.00058  -0.00235   0.00884   0.00647   2.09829
   A23        2.08860  -0.00031   0.00110  -0.00374  -0.00262   2.08597
   A24        2.07548   0.00024   0.00358  -0.00967  -0.00609   2.06939
   A25        2.11911   0.00007  -0.00468   0.01340   0.00871   2.12782
   A26        2.16136  -0.00050  -0.00564   0.01483   0.00919   2.17055
   A27        2.04012   0.00018   0.00549  -0.01559  -0.01008   2.03004
   A28        2.08145   0.00033   0.00019   0.00068   0.00090   2.08235
   A29        3.19522  -0.00873  -0.02443  -0.32224  -0.34667   2.84855
   A30        3.15112  -0.00128  -0.00582  -0.00572  -0.01154   3.13958
   A31        3.09835   0.00198   0.00795   0.06873   0.07668   3.17503
   A32        3.13991   0.00016  -0.00175   0.00738   0.00563   3.14554
    D1        3.12875  -0.00044  -0.00569   0.00071  -0.00488   3.12388
    D2       -0.05310   0.00022   0.00043   0.01009   0.01038  -0.04273
    D3       -0.00781  -0.00030  -0.00327  -0.00002  -0.00321  -0.01102
    D4        3.09352   0.00036   0.00285   0.00935   0.01204   3.10557
    D5       -0.05567   0.00002   0.00473  -0.00718  -0.00259  -0.05827
    D6        3.13738  -0.00020   0.00122  -0.00952  -0.00835   3.12903
    D7        3.08093  -0.00012   0.00229  -0.00642  -0.00421   3.07672
    D8       -0.00920  -0.00034  -0.00122  -0.00876  -0.00997  -0.01917
    D9       -3.06324   0.00007   0.00039   0.00541   0.00584  -3.05740
   D10        0.09247  -0.00045  -0.00286  -0.00666  -0.00937   0.08311
   D11        0.11900  -0.00051  -0.00580  -0.00328  -0.00917   0.10983
   D12       -3.00848  -0.00103  -0.00905  -0.01535  -0.02438  -3.03286
   D13       -0.05510   0.00020   0.00388  -0.00281   0.00110  -0.05400
   D14        3.07154   0.00077   0.00728   0.00979   0.01722   3.08876
   D15       -0.06686   0.00026   0.00263   0.00340   0.00611  -0.06075
   D16        3.09785   0.00022  -0.00228   0.01693   0.01459   3.11244
   D17        0.12461  -0.00044  -0.00717   0.00192  -0.00534   0.11927
   D18       -3.06819  -0.00019  -0.00354   0.00360   0.00004  -3.06814
[...]
 ! D16   D(5,6,7,12)           179.9885         -DE/DX =    0.0                 !
 ! D17   D(6,7,8,3)              0.0624         -DE/DX =    0.0                 !
 ! D18   D(6,7,8,9)           -179.9719         -DE/DX =    0.0                 !
 ! D19   D(12,7,8,3)          -179.9601         -DE/DX =    0.0                 !
 ! D20   D(12,7,8,9)             0.0056         -DE/DX =    0.0                 !
 ! D21   D(6,7,12,11)          179.975          -DE/DX =    0.0                 !
 ! D22   D(6,7,12,19)           -0.0133         -DE/DX =    0.0                 !
 ! D23   D(8,7,12,11)           -0.0045         -DE/DX =    0.0                 !
 ! D24   D(8,7,12,19)          180.0072         -DE/DX =    0.0                 !
 ! D25   D(3,8,9,10)           179.9596         -DE/DX =    0.0                 !
 ! D26   D(3,8,9,17)            -0.0234         -DE/DX =    0.0                 !
 ! D27   D(7,8,9,10)            -0.0052         -DE/DX =    0.0                 !
 ! D28   D(7,8,9,17)           180.0119         -DE/DX =    0.0                 !
 ! D29   D(8,9,10,11)            0.0031         -DE/DX =    0.0                 !
 ! D30   D(8,9,10,14)          180.0005         -DE/DX =    0.0                 !
 ! D31   D(17,9,10,11)         179.986          -DE/DX =    0.0                 !
 ! D32   D(17,9,10,14)          -0.0166         -DE/DX =    0.0                 !
 ! D33   D(9,10,11,12)          -0.0017         -DE/DX =    0.0                 !
 ! D34   D(9,10,11,18)        -179.9967         -DE/DX =    0.0                 !
 ! D35   D(14,10,11,12)       -179.9992         -DE/DX =    0.0                 !
 ! D36   D(14,10,11,18)          0.0059         -DE/DX =    0.0                 !
 ! D37   D(10,11,12,7)           0.0026         -DE/DX =    0.0                 !
 ! D38   D(10,11,12,19)        179.9906         -DE/DX =    0.0                 !
 ! D39   D(18,11,12,7)        -180.0025         -DE/DX =    0.0                 !
 ! D40   D(18,11,12,19)         -0.0145         -DE/DX =    0.0                 !
 --------------------------------------------------------------------------------
 GradGradGradGradGradGradGradGradGradGradGradGradGradGradGradGradGradGrad

                          Input orientation:                          
 ---------------------------------------------------------------------
 Center     Atomic      Atomic             Coordinates (Angstroms)
 Number     Number       Type             X           Y           Z
 ---------------------------------------------------------------------
      1          7           0        3.703315    0.091867   -1.410445
      2          6           0        4.625295   -0.022415   -0.650034
      3          6           0        5.604251   -0.517589    1.569616
      4          6           0        5.793767   -0.144387    0.228708
      5          6           0        7.122582    0.118084   -0.285684
      6          6           0        8.352768    0.044507    0.429588
      7          6           0        8.073008   -0.353396    1.829416
      8          6           0        6.755713   -0.631442    2.410947
      9          6           0        6.633092   -1.009135    3.792593
     10          6           0        7.762793   -1.120486    4.613382
     11          6           0        9.072738   -0.852349    4.066447
     12          6           0        9.196541   -0.487805    2.734939
     13          7           0        7.513922   -1.821222    7.169267
     14          6           0        7.623482   -1.505588    6.017021
     15          1           0        4.603251   -0.718608    1.970399
     16          1           0        7.135227    0.402419   -1.353366
     17          1           0        5.636684   -1.213894    4.210725
     18          1           0        9.949589   -0.943157    4.719832
     19          1           0       10.194992   -0.283923    2.320538
 ---------------------------------------------------------------------
                    Distance matrix (angstroms):
                    1          2          3          4          5
     1  N    0.000000
     2  C    1.200555   0.000000
     3  C    3.586887   2.475964   0.000000
     4  C    2.666951   1.467104   1.404717   0.000000
     5  C    3.599606   2.527634   2.480231   1.448875   0.000000
     6  C    5.000538   3.881252   3.028195   2.573814   1.424916
     7  C    5.457946   4.259571   2.487814   2.793007   2.366274
     8  C    4.944021   3.778783   1.430617   2.434077   2.822800
     9  C    6.071853   4.974113   2.498351   3.762117   4.259409
    10  C    7.364486   6.225207   3.779854   4.904610   5.093601
    11  C    7.727781   6.535575   4.286798   5.097166   4.866816
    12  C    6.906212   5.707094   3.776693   4.240047   3.713835
    13  N    9.580819   8.527681   6.058250   7.344527   7.712999
    14  C    8.549083   7.459125   4.983257   6.221358   6.527733
    15  H    3.591220   2.711428   1.096830   2.186446   3.483819
    16  H    3.446407   2.641007   3.425512   2.145104   1.104967
    17  H    6.086089   5.105831   2.731547   4.126134   4.919325
    18  H    8.812917   7.617830   5.383952   6.170825   5.845801
    19  H    7.496887   6.317769   4.657616   4.875038   4.048914
                    6          7          8          9         10
     6  C    0.000000
     7  C    1.481928   0.000000
     8  C    2.633112   1.466545   0.000000
     9  C    3.921383   2.521391   1.437578   0.000000
    10  C    4.382854   2.904329   2.470646   1.400828   0.000000
    11  C    3.814374   2.500544   2.856237   2.459970   1.444642
    12  C    2.511962   1.449263   2.466423   2.821646   2.446317
    13  N    7.043286   5.566067   4.963070   3.582915   2.661864
    14  C    5.844147   4.366423   3.810633   2.485039   1.462161
    15  H    4.124964   3.491772   2.198812   2.743183   4.138789
    16  H    2.188478   3.403057   3.922111   5.359619   6.189924
    17  H    4.822622   3.513797   2.197880   1.099814   2.165917
    18  H    4.683109   3.496266   3.953348   3.444312   2.196555
    19  H    2.660328   2.179184   3.457974   3.921735   3.445658
                   11         12         13         14         15
    11  C    0.000000
    12  C    1.386049   0.000000
    13  N    3.605013   4.926710   0.000000
    14  C    2.516308   3.779214   1.199708   0.000000
    15  H    4.938383   4.662200   6.059373   5.110409   0.000000
    16  H    5.890906   4.664307   8.816080   7.628990   4.326086
    17  H    3.458035   3.921445   3.556099   2.700955   2.516417
    18  H    1.097281   2.171227   3.564156   2.722096   6.016074
    19  H    2.151920   1.100091   5.749921   4.665738   5.619530
                   16         17         18         19
    16  H    0.000000
    17  H    5.984749   0.000000
    18  H    6.827514   4.351281   0.000000
    19  H    4.830197   5.021536   2.500284   0.000000
 Stoichiometry    C12H5N2(1-)
 Framework group  C1[X(C12H5N2)]
 Deg. of freedom    51
 Full point group                 C1      NOp   1
 Largest Abelian subgroup         C1      NOp   1
 Largest concise Abelian subgroup C1      NOp   1
                         Standard orientation:                         
 ---------------------------------------------------------------------
 Center     Atomic      Atomic             Coordinates (Angstroms)
 Number     Number       Type             X           Y           Z
 ---------------------------------------------------------------------
      1          7           0        4.806378   -1.479616    0.000577
      2          6           0        3.733005   -0.941840    0.000437
      3          6           0        1.257118   -0.961431   -0.000124
      4          6           0        2.453128   -0.224688   -0.000073
      5          6           0        2.429907    1.224001   -0.000685
      6          6           0        1.280866    2.066670   -0.000468
      7          6           0        0.063635    1.221414    0.000024
      8          6           0        0.019132   -0.244456   -0.000453
      9          6           0       -1.241104   -0.936147   -0.000489
     10          6           0       -2.451477   -0.230941    0.000036
     11          6           0       -2.436898    1.213628    0.000556
     12          6           0       -1.224550    1.885450    0.000567
     13          7           0       -4.774304   -1.530939   -0.000064
     14          6           0       -3.726118   -0.947324    0.000003
     15          1           0        1.262081   -2.058250    0.000123
     16          1           0        3.435332    1.682338   -0.000873
     17          1           0       -1.254237   -2.035883   -0.000651
     18          1           0       -3.391804    1.754164    0.001019
     19          1           0       -1.215748    2.985506    0.000807
 ---------------------------------------------------------------------
 Rotational constants (GHZ):      1.8096490      0.3698862      0.3071133

 **********************************************************************

            Population analysis using the SCF density.

 **********************************************************************

 Orbital symmetries:
       Occupied  (A) (A) (A) (A) (A) (A) (A) (A) (A) (A) (A) (A)
                 (A) (A) (A) (A) (A) (A) (A) (A) (A) (A) (A) (A)
                 (A) (A) (A) (A) (A) (A) (A) (A) (A) (A) (A) (A)
                 (A) (A) (A) (A) (A) (A) (A) (A) (A) (A)
       Virtual   (A) (A) (A) (A) (A) (A) (A) (A) (A) (A) (A) (A)
                 (A) (A) (A) (A) (A) (A) (A) (A) (A) (A) (A) (A)
                 (A) (A) (A) (A) (A)
 The electronic state is 1-A.
 Alpha  occ. eigenvalues --  -13.99998 -13.97069  -9.91069  -9.90443  -9.88327
 Alpha  occ. eigenvalues --   -9.87675  -9.87582  -9.87242  -9.86420  -9.86074
 Alpha  occ. eigenvalues --   -9.84752  -9.83228  -9.79854  -9.66575  -0.73473
 Alpha  occ. eigenvalues --   -0.70921  -0.67146  -0.62272  -0.57427  -0.55416
 Alpha  occ. eigenvalues --   -0.50451  -0.45316  -0.42803  -0.39478  -0.34516
 Alpha  occ. eigenvalues --   -0.33039  -0.30995  -0.25773  -0.25199  -0.23537
 Alpha  occ. eigenvalues --   -0.22353  -0.20795  -0.19367  -0.17557  -0.16375
 Alpha  occ. eigenvalues --   -0.15806  -0.14778  -0.14235  -0.13935  -0.12054
 Alpha  occ. eigenvalues --   -0.09989  -0.09809  -0.06982  -0.02874   0.01863
 Alpha  occ. eigenvalues --    0.11195
 Alpha virt. eigenvalues --    0.17237   0.19379   0.24980   0.26116   0.27644
 Alpha virt. eigenvalues --    0.28881   0.33874   0.37760   0.42110   0.45764
 Alpha virt. eigenvalues --    0.45814   0.51625   0.52969   0.54427   0.57233
 Alpha virt. eigenvalues --    0.58608   0.60871   0.63083   0.67839   0.68981
 Alpha virt. eigenvalues --    0.71315   0.75672   0.77807   0.81355   0.84815
 Alpha virt. eigenvalues --    0.91263   0.93188   1.05849   1.08113
          Condensed to atoms (all electrons):
               1          2          3          4          5          6
     1  N    6.608050   0.658101  -0.000032  -0.010771  -0.000149  -0.000001
     2  C    0.658101   4.955227  -0.031434   0.409719  -0.025279   0.000643
     3  C   -0.000032  -0.031434   4.867170   0.505256  -0.030411  -0.005853
     4  C   -0.010771   0.409719   0.505256   4.807214   0.443854  -0.017497
     5  C   -0.000149  -0.025279  -0.030411   0.443854   4.950295   0.452140
     6  C   -0.000001   0.000643  -0.005853  -0.017497   0.452140   5.478880
     7  C    0.000000   0.000043  -0.030024  -0.013194  -0.028908   0.394836
     8  C   -0.000002   0.000951   0.475794  -0.029014  -0.011933  -0.017511
     9  C    0.000000  -0.000005  -0.030340   0.000815   0.000050   0.000571
    10  C    0.000000   0.000000   0.000774  -0.000008   0.000001   0.000018
    11  C    0.000000   0.000000   0.000035   0.000000  -0.000016   0.000733
    12  C    0.000000   0.000000   0.000887   0.000016   0.001395  -0.034080
    13  N    0.000000   0.000000   0.000000   0.000000   0.000000   0.000000
    14  C    0.000000   0.000000  -0.000006   0.000000   0.000000   0.000000
    15  H    0.000071  -0.003700   0.386863  -0.024609   0.001132  -0.000003
    16  H    0.000106  -0.003747   0.001297  -0.035952   0.381327  -0.031882
    17  H    0.000000  -0.000001  -0.003501   0.000016  -0.000002  -0.000013
    18  H    0.000000   0.000000   0.000001   0.000000   0.000000  -0.000017
    19  H    0.000000   0.000000  -0.000016   0.000000   0.000029  -0.001425
               7          8          9         10         11         12
     1  N    0.000000  -0.000002   0.000000   0.000000   0.000000   0.000000
     2  C    0.000043   0.000951  -0.000005   0.000000   0.000000   0.000000
     3  C   -0.030024   0.475794  -0.030340   0.000774   0.000035   0.000887
     4  C   -0.013194  -0.029014   0.000815  -0.000008   0.000000   0.000016
     5  C   -0.028908  -0.011933   0.000050   0.000001  -0.000016   0.001395
     6  C    0.394836  -0.017511   0.000571   0.000018   0.000733  -0.034080
     7  C    4.898931   0.436505  -0.022587  -0.008115  -0.024951   0.457157
     8  C    0.436505   4.819600   0.467712  -0.027518  -0.008325  -0.034115
     9  C   -0.022587   0.467712   4.837468   0.511001  -0.029825  -0.009723
    10  C   -0.008115  -0.027518   0.511001   4.771368   0.458346  -0.028787
    11  C   -0.024951  -0.008325  -0.029825   0.458346   4.845229   0.526261
    12  C    0.457157  -0.034115  -0.009723  -0.028787   0.526261   4.840379
    13  N    0.000000  -0.000001  -0.000105  -0.010914  -0.000072  -0.000001
    14  C    0.000009   0.000851  -0.029183   0.418681  -0.028001   0.000837
    15  H    0.001126  -0.024504  -0.003509   0.000014  -0.000001  -0.000020
    16  H    0.002268   0.000011   0.000001   0.000000   0.000000  -0.000015
    17  H    0.001085  -0.023680   0.384098  -0.026231   0.001294   0.000011
    18  H    0.001247   0.000015   0.001220  -0.025477   0.387485  -0.024332
    19  H   -0.025391   0.001413   0.000025   0.001420  -0.027007   0.383829
              13         14         15         16         17         18
     1  N    0.000000   0.000000   0.000071   0.000106   0.000000   0.000000
     2  C    0.000000   0.000000  -0.003700  -0.003747  -0.000001   0.000000
     3  C    0.000000  -0.000006   0.386863   0.001297  -0.003501   0.000001
     4  C    0.000000   0.000000  -0.024609  -0.035952   0.000016   0.000000
     5  C    0.000000   0.000000   0.001132   0.381327  -0.000002   0.000000
     6  C    0.000000   0.000000  -0.000003  -0.031882  -0.000013  -0.000017
     7  C    0.000000   0.000009   0.001126   0.002268   0.001085   0.001247
     8  C   -0.000001   0.000851  -0.024504   0.000011  -0.023680   0.000015
     9  C   -0.000105  -0.029183  -0.003509   0.000001   0.384098   0.001220
    10  C   -0.010914   0.418681   0.000014   0.000000  -0.026231  -0.025477
    11  C   -0.000072  -0.028001  -0.000001   0.000000   0.001294   0.387485
    12  C   -0.000001   0.000837  -0.000020  -0.000015   0.000011  -0.024332
    13  N    6.589145   0.661004   0.000000   0.000000   0.000061   0.000057
    14  C    0.661004   4.935237  -0.000001   0.000000  -0.003531  -0.002976
    15  H    0.000000  -0.000001   0.616168  -0.000040   0.000991   0.000000
    16  H    0.000000   0.000000  -0.000040   0.662490   0.000000   0.000000
    17  H    0.000061  -0.003531   0.000991   0.000000   0.606073  -0.000035
    18  H    0.000057  -0.002976   0.000000   0.000000  -0.000035   0.608950
    19  H    0.000000  -0.000017   0.000000  -0.000003   0.000002  -0.003857
              19
     1  N    0.000000
     2  C    0.000000
     3  C   -0.000016
     4  C    0.000000
     5  C    0.000029
     6  C   -0.001425
     7  C   -0.025391
     8  C    0.001413
     9  C    0.000025
    10  C    0.001420
    11  C   -0.027007
    12  C    0.383829
    13  N    0.000000
    14  C   -0.000017
    15  H    0.000000
    16  H   -0.000003
    17  H    0.000002
    18  H   -0.003857
    19  H    0.603464
 Mulliken charges:
               1
     1  N   -0.255374
     2  C    0.039483
     3  C   -0.106459
     4  C   -0.035847
     5  C   -0.133525
     6  C   -0.219540
     7  C   -0.040037
     8  C   -0.026251
     9  C   -0.077686
    10  C   -0.034573
    11  C   -0.101186
    12  C   -0.079699
    13  N   -0.239174
    14  C    0.047094
    15  H    0.050020
    16  H    0.024138
    17  H    0.063364
    18  H    0.057718
    19  H    0.067534
 Sum of Mulliken charges =  -1.00000
 Mulliken charges with hydrogens summed into heavy atoms:
               1
     1  N   -0.255374
     2  C    0.039483
     3  C   -0.056439
     4  C   -0.035847
     5  C   -0.109387
     6  C   -0.219540
     7  C   -0.040037
     8  C   -0.026251
     9  C   -0.014322
    10  C   -0.034573
    11  C   -0.043467
    12  C   -0.012165
    13  N   -0.239174
    14  C    0.047094
 Electronic spatial extent (au):  <R**2>=           3253.7239
 Charge=             -1.0000 electrons
 Dipole moment (field-independent basis, Debye):
    X=             -3.2491    Y=             -1.2943    Z=              0.0007  Tot=              3.4974
 Quadrupole moment (field-independent basis, Debye-Ang):
   XX=           -137.9870   YY=            -90.5903   ZZ=            -74.1645
   XY=             -6.2794   XZ=             -0.0023   YZ=              0.0042
 Traceless Quadrupole moment (field-independent basis, Debye-Ang):
   XX=            -37.0730   YY=             10.3236   ZZ=             26.7494
   XY=             -6.2794   XZ=             -0.0023   YZ=              0.0042
 Octapole moment (field-independent basis, Debye-Ang**2):
  XXX=            -24.0474  YYY=            -31.5412  ZZZ=              0.0018  XYY=            -20.2248
  XXY=             97.4187  XXZ=             -0.0108  XZZ=              0.0910  YZZ=             -3.0850
  YYZ=              0.0070  XYZ=              0.0102
 Hexadecapole moment (field-independent basis, Debye-Ang**3):
 XXXX=          -4931.8873 YYYY=           -864.8358 ZZZZ=            -58.3794 XXXY=            -13.8672
 XXXZ=             -0.1201 YYYX=            -57.5984 YYYZ=              0.0289 ZZZX=              0.0106
 ZZZY=             -0.0020 XXYY=           -877.9553 XXZZ=           -556.7588 YYZZ=           -141.8573
 XXYZ=              0.0450 YYXZ=             -0.0046 ZZXY=              0.2470
 N-N= 6.815323054450D+02 E-N=-2.685071378978D+03  KE= 5.547482585025D+02
 1\1\GINC-N047\FOpt\RB3LYP\STO-3G\C12H5N2(1-)\R2532\15-Jun-2021\0\\#N B
 3LYP/STO-3G OPT\\2Naph\\-1,1\N,3.7033153146,0.0918665242,-1.4104452803
 \C,4.6252950222,-0.0224152597,-0.6500341496\C,5.6042507046,-0.51758850
 52,1.5696161985\C,5.7937674284,-0.1443873919,0.2287079746\C,7.12258214
 48,0.1180842782,-0.2856837399\C,8.3527683358,0.0445065212,0.4295881214
 \C,8.0730080244,-0.3533964386,1.8294161862\C,6.7557126895,-0.631441834
 1,2.4109474339\C,6.6330917878,-1.009134746,3.7925926818\C,7.7627929309
 ,-1.1204862626,4.6133817558\C,9.0727383199,-0.8523490973,4.0664472117\
 C,9.1965408584,-0.4878049529,2.7349392188\N,7.5139221582,-1.8212221332
 ,7.1692672878\C,7.6234816981,-1.50558773,6.0170211364\H,4.60325071,-0.
 7186081045,1.9703987999\H,7.1352271521,0.4024192487,-1.3533663698\H,5.
 6366835488,-1.2138943772,4.2107252371\H,9.9495893867,-0.943157157,4.71
 98319682\H,10.1949917848,-0.2839225822,2.3205383276\\Version=ES64L-G09
 RevD.01\State=1-A\HF=-562.5144892\RMSD=9.011e-09\RMSF=4.034e-05\Dipole
 =0.0508986,-0.3480112,1.330275\Quadrupole=5.4888297,17.2578159,-22.746
 6456,1.2482339,-9.8562766,10.3670788\PG=C01 [X(C12H5N2)]\\@


 ALL OUR THINKING ABOUT NATURE MUST NECESSARILY MOVE IN CIRCLES OR SPIRALS;
 FOR WE CAN ONLY UNDERSTAND NATURE IF WE THINK ABOUT HER, AND WE CAN ONLY
 THINK BECAUSE OUR BRAIN IS BUILT IN ACCORDANCE WITH NATURE'S LAWS.

                                             -- TIMOTHY FERRIS, "GALAXIES"
 Job cpu time:       0 days  0 hours  4 minutes 57.6 seconds.
 File lengths (MBytes):  RWF=      5 Int=      0 D2E=      0 Chk=      2 Scr=      1
 Normal termination of Gaussian 09 at Tue Jun 15 11:13:54 2021.
