 Entering Gaussian System, Link 0=/usr/local/apps//g09/g09
 Input=6.com
 Output=6.out
 Initial command:
 /usr/local/apps//g09/l1.exe "/tmp/bnp.472665.sequoia/Gau-29924.inp" -scrdir="/tmp/bnp.472665.sequoia/"
 Entering Link 1 = /usr/local/apps//g09/l1.exe PID=     29925.
  
 Copyright (c) 1988,1990,1992,1993,1995,1998,2003,2009,2013,
            Gaussian, Inc.  All Rights Reserved.
  
 This is part of the Gaussian(R) 09 program.  It is based on
 the Gaussian(R) 03 system (copyright 2003, Gaussian, Inc.),
 the Gaussian(R) 98 system (copyright 1998, Gaussian, Inc.),
 the Gaussian(R) 94 system (copyright 1995, Gaussian, Inc.),
 the Gaussian 92(TM) system (copyright 1992, Gaussian, Inc.),
 the Gaussian 90(TM) system (copyright 1990, Gaussian, Inc.),
 the Gaussian 88(TM) system (copyright 1988, Gaussian, Inc.),
 the Gaussian 86(TM) system (copyright 1986, Carnegie Mellon
 University), and the Gaussian 82(TM) system (copyright 1983,
 Carnegie Mellon University). Gaussian is a federally registered
 trademark of Gaussian, Inc.
  
 This software contains proprietary and confidential information,
 including trade secrets, belonging to Gaussian, Inc.
  
 This software is provided under written license and may be
 used, copied, transmitted, or stored only in accord with that
 written license.
  
 The following legend is applicable only to US Government
 contracts under FAR:
  
                    RESTRICTED RIGHTS LEGEND
  
 Use, reproduction and disclosure by the US Government is
 subject to restrictions as set forth in subparagraphs (a)
 and (c) of the Commercial Computer Software - Restricted
 Rights clause in FAR 52.227-19.
  
 Gaussian, Inc.
 340 Quinnipiac St., Bldg. 40, Wallingford CT 06492
  
  
 ---------------------------------------------------------------
 Warning -- This program may not be used in any manner that
 competes with the business of Gaussian, Inc. or will provide
 assistance to any competitor of Gaussian, Inc.  The licensee
 of this program is prohibited from giving any competitor of
 Gaussian, Inc. access to this program.  By using this program,
 the user acknowledges that Gaussian, Inc. is engaged in the
 business of creating and licensing software in the field of
 computational chemistry and represents and warrants to the
 licensee that it is not a competitor of Gaussian, Inc. and that
 it will not use this program in any manner prohibited above.
 ---------------------------------------------------------------
  

 Cite this work as:
 Gaussian 09, Revision D.01,
 M. J. Frisch, G. W. Trucks, H. B. Schlegel, G. E. Scuseria, 
 M. A. Robb, J. R. Cheeseman, G. Scalmani, V. Barone, B. Mennucci, 
 G. A. Petersson, H. Nakatsuji, M. Caricato, X. Li, H. P. Hratchian, 
 A. F. Izmaylov, J. Bloino, G. Zheng, J. L. Sonnenberg, M. Hada, 
 M. Ehara, K. Toyota, R. Fukuda, J. Hasegawa, M. Ishida, T. Nakajima, 
 Y. Honda, O. Kitao, H. Nakai, T. Vreven, J. A. Montgomery, Jr., 
 J. E. Peralta, F. Ogliaro, M. Bearpark, J. J. Heyd, E. Brothers, 
 K. N. Kudin, V. N. Staroverov, T. Keith, R. Kobayashi, J. Normand, 
 K. Raghavachari, A. Rendell, J. C. Burant, S. S. Iyengar, J. Tomasi, 
 M. Cossi, N. Rega, J. M. Millam, M. Klene, J. E. Knox, J. B. Cross, 
 V. Bakken, C. Adamo, J. Jaramillo, R. Gomperts, R. E. Stratmann, 
 O. Yazyev, A. J. Austin, R. Cammi, C. Pomelli, J. W. Ochterski, 
 R. L. Martin, K. Morokuma, V. G. Zakrzewski, G. A. Voth, 
 P. Salvador, J. J. Dannenberg, S. Dapprich, A. D. Daniels, 
 O. Farkas, J. B. Foresman, J. V. Ortiz, J. Cioslowski, 
 and D. J. Fox, Gaussian, Inc., Wallingford CT, 2013.
 
 ******************************************
 Gaussian 09:  ES64L-G09RevD.01 24-Apr-2013
                15-Jun-2021 
 ******************************************
 -------------------
 #N B3LYP/STO-3G OPT
 -------------------
 1/14=-1,18=20,19=15,26=3,38=1/1,3;
 2/9=110,12=2,17=6,18=5,40=1/2;
 3/6=3,11=2,16=1,25=1,30=1,71=1,74=-5/1,2,3;
 4//1;
 5/5=2,38=5/2;
 6/7=2,8=2,9=2,10=2,28=1/1;
 7//1,2,3,16;
 1/14=-1,18=20,19=15,26=3/3(2);
 2/9=110/2;
 99//99;
 2/9=110/2;
 3/6=3,11=2,16=1,25=1,30=1,71=1,74=-5/1,2,3;
 4/5=5,16=3,69=1/1;
 5/5=2,38=5/2;
 7//1,2,3,16;
 1/14=-1,18=20,19=15,26=3/3(-5);
 2/9=110/2;
 6/7=2,8=2,9=2,10=2,19=2,28=1/1;
 99/9=1/99;
 -----
 1Naph
 -----
 Symbolic Z-matrix:
 Charge = -1 Multiplicity = 1
 N                     1.02539   0.17449   0.0085 
 C                     2.18406   0.11831   0.01232 
 C                     3.61412   0.03067   0.01671 
 C                     4.29411   0.82728   0.94013 
 C                     5.67895   0.77511   1.03097 
 C                     6.39692  -0.07907   0.19155 
 C                     5.73393  -0.8949   -0.74018 
 C                     4.31997  -0.84547  -0.84454 
 C                     3.69461  -1.68515  -1.79689 
 C                     4.43654  -2.55706  -2.59596 
 C                     5.81914  -2.60301  -2.47365 
 C                     6.46396  -1.77131  -1.55914 
 N                     6.90257   2.22505   2.79347 
 C                     6.34799   1.58206   2.00401 
 H                     7.48349  -0.11825   0.2721 
 H                     2.61296  -1.67803  -1.92679 
 H                     3.93058  -3.20262  -3.31018 
 H                     6.39772  -3.28806  -3.08896 
 H                     7.54906  -1.82398  -1.48573 
 

 GradGradGradGradGradGradGradGradGradGradGradGradGradGradGradGradGradGrad
 Berny optimization.
 Initialization pass.
                           ----------------------------
                           !    Initial Parameters    !
                           ! (Angstroms and Degrees)  !
 --------------------------                            --------------------------
 ! Name  Definition              Value          Derivative Info.                !
 --------------------------------------------------------------------------------
 ! R1    R(1,2)                  1.16           estimate D2E/DX2                !
 ! R2    R(2,3)                  1.4327         estimate D2E/DX2                !
 ! R3    R(3,4)                  1.3963         estimate D2E/DX2                !
 ! R4    R(3,8)                  1.4169         estimate D2E/DX2                !
 ! R5    R(4,5)                  1.3888         estimate D2E/DX2                !
 ! R6    R(5,6)                  1.3963         estimate D2E/DX2                !
 ! R7    R(5,14)                 1.4302         estimate D2E/DX2                !
 ! R8    R(6,7)                  1.4047         estimate D2E/DX2                !
 ! R9    R(6,15)                 1.0903         estimate D2E/DX2                !
 ! R10   R(7,8)                  1.4187         estimate D2E/DX2                !
 ! R11   R(7,12)                 1.4042         estimate D2E/DX2                !
 ! R12   R(8,9)                  1.4153         estimate D2E/DX2                !
 ! R13   R(9,10)                 1.3961         estimate D2E/DX2                !
 ! R14   R(9,16)                 1.0894         estimate D2E/DX2                !
 ! R15   R(10,11)                1.3888         estimate D2E/DX2                !
 ! R16   R(10,17)                1.0876         estimate D2E/DX2                !
 ! R17   R(11,12)                1.3942         estimate D2E/DX2                !
 ! R18   R(11,18)                1.0875         estimate D2E/DX2                !
 ! R19   R(12,19)                1.0889         estimate D2E/DX2                !
 ! R20   R(13,14)                1.1594         estimate D2E/DX2                !
 ! A1    A(2,3,4)              116.9495         estimate D2E/DX2                !
 ! A2    A(2,3,8)              122.2214         estimate D2E/DX2                !
 ! A3    A(4,3,8)              120.8077         estimate D2E/DX2                !
 ! A4    A(3,4,5)              120.4928         estimate D2E/DX2                !
 ! A5    A(4,5,6)              119.7607         estimate D2E/DX2                !
 ! A6    A(4,5,14)             119.3244         estimate D2E/DX2                !
 ! A7    A(6,5,14)             120.9045         estimate D2E/DX2                !
 ! A8    A(5,6,7)              120.7531         estimate D2E/DX2                !
 ! A9    A(5,6,15)             119.3416         estimate D2E/DX2                !
 ! A10   A(7,6,15)             119.9014         estimate D2E/DX2                !
 ! A11   A(6,7,8)              119.9313         estimate D2E/DX2                !
 ! A12   A(6,7,12)             120.262          estimate D2E/DX2                !
 ! A13   A(8,7,12)             119.8027         estimate D2E/DX2                !
 ! A14   A(3,8,7)              118.2516         estimate D2E/DX2                !
 ! A15   A(3,8,9)              123.7625         estimate D2E/DX2                !
 ! A16   A(7,8,9)              117.9833         estimate D2E/DX2                !
 ! A17   A(8,9,10)             121.388          estimate D2E/DX2                !
 ! A18   A(8,9,16)             121.0005         estimate D2E/DX2                !
 ! A19   A(10,9,16)            117.6101         estimate D2E/DX2                !
 ! A20   A(9,10,11)            119.9547         estimate D2E/DX2                !
 ! A21   A(9,10,17)            119.9557         estimate D2E/DX2                !
 ! A22   A(11,10,17)           120.089          estimate D2E/DX2                !
 ! A23   A(10,11,12)           119.8992         estimate D2E/DX2                !
 ! A24   A(10,11,18)           120.045          estimate D2E/DX2                !
 ! A25   A(12,11,18)           120.0557         estimate D2E/DX2                !
 ! A26   A(7,12,11)            120.9593         estimate D2E/DX2                !
 ! A27   A(7,12,19)            120.5955         estimate D2E/DX2                !
 ! A28   A(11,12,19)           118.4419         estimate D2E/DX2                !
 ! A29   L(1,2,3,16,-1)        179.4977         estimate D2E/DX2                !
 ! A30   L(5,14,13,15,-1)      179.2731         estimate D2E/DX2                !
 ! A31   L(1,2,3,16,-2)        180.5416         estimate D2E/DX2                !
 ! A32   L(5,14,13,15,-2)      180.4686         estimate D2E/DX2                !
 ! D1    D(2,3,4,5)            178.3696         estimate D2E/DX2                !
 ! D2    D(8,3,4,5)              0.015          estimate D2E/DX2                !
 ! D3    D(2,3,8,7)           -178.0463         estimate D2E/DX2                !
 ! D4    D(2,3,8,9)              1.359          estimate D2E/DX2                !
 ! D5    D(4,3,8,7)              0.22           estimate D2E/DX2                !
 ! D6    D(4,3,8,9)            179.6253         estimate D2E/DX2                !
 ! D7    D(3,4,5,6)              0.0791         estimate D2E/DX2                !
 ! D8    D(3,4,5,14)          -178.756          estimate D2E/DX2                !
 ! D9    D(4,5,6,7)             -0.4176         estimate D2E/DX2                !
 ! D10   D(4,5,6,15)          -179.6966         estimate D2E/DX2                !
 ! D11   D(14,5,6,7)           178.3988         estimate D2E/DX2                !
 ! D12   D(14,5,6,15)           -0.8802         estimate D2E/DX2                !
 ! D13   D(5,6,7,8)              0.6579         estimate D2E/DX2                !
 ! D14   D(5,6,7,12)          -178.6133         estimate D2E/DX2                !
 ! D15   D(15,6,7,8)           179.9329         estimate D2E/DX2                !
 ! D16   D(15,6,7,12)            0.6617         estimate D2E/DX2                !
 ! D17   D(6,7,8,3)             -0.55           estimate D2E/DX2                !
 ! D18   D(6,7,8,9)           -179.9901         estimate D2E/DX2                !
 ! D19   D(12,7,8,3)           178.7246         estimate D2E/DX2                !
 ! D20   D(12,7,8,9)            -0.7155         estimate D2E/DX2                !
 ! D21   D(6,7,12,11)          178.9599         estimate D2E/DX2                !
 ! D22   D(6,7,12,19)           -0.3688         estimate D2E/DX2                !
 ! D23   D(8,7,12,11)           -0.3123         estimate D2E/DX2                !
 ! D24   D(8,7,12,19)         -179.6409         estimate D2E/DX2                !
 ! D25   D(3,8,9,10)          -178.218          estimate D2E/DX2                !
 ! D26   D(3,8,9,16)             1.3429         estimate D2E/DX2                !
 ! D27   D(7,8,9,10)             1.1888         estimate D2E/DX2                !
 ! D28   D(7,8,9,16)          -179.2504         estimate D2E/DX2                !
 ! D29   D(8,9,10,11)           -0.6231         estimate D2E/DX2                !
 ! D30   D(8,9,10,17)          179.0989         estimate D2E/DX2                !
 ! D31   D(16,9,10,11)         179.8017         estimate D2E/DX2                !
 ! D32   D(16,9,10,17)          -0.4763         estimate D2E/DX2                !
 ! D33   D(9,10,11,12)          -0.4375         estimate D2E/DX2                !
 ! D34   D(9,10,11,18)         179.4465         estimate D2E/DX2                !
 ! D35   D(17,10,11,12)        179.8409         estimate D2E/DX2                !
 ! D36   D(17,10,11,18)         -0.2751         estimate D2E/DX2                !
 ! D37   D(10,11,12,7)           0.9049         estimate D2E/DX2                !
 ! D38   D(10,11,12,19)       -179.7523         estimate D2E/DX2                !
 ! D39   D(18,11,12,7)        -178.9791         estimate D2E/DX2                !
 ! D40   D(18,11,12,19)          0.3637         estimate D2E/DX2                !
 --------------------------------------------------------------------------------
 Trust Radius=3.00D-01 FncErr=1.00D-07 GrdErr=1.00D-06
 Number of steps in this run=    102 maximum allowed number of steps=    114.
 GradGradGradGradGradGradGradGradGradGradGradGradGradGradGradGradGradGrad

                          Input orientation:                          
 ---------------------------------------------------------------------
 Center     Atomic      Atomic             Coordinates (Angstroms)
 Number     Number       Type             X           Y           Z
 ---------------------------------------------------------------------
      1          7           0        1.025390    0.174490    0.008500
      2          6           0        2.184060    0.118310    0.012320
      3          6           0        3.614120    0.030670    0.016710
      4          6           0        4.294110    0.827280    0.940130
      5          6           0        5.678950    0.775110    1.030970
      6          6           0        6.396920   -0.079070    0.191550
      7          6           0        5.733930   -0.894900   -0.740180
      8          6           0        4.319970   -0.845470   -0.844540
      9          6           0        3.694610   -1.685150   -1.796890
     10          6           0        4.436540   -2.557060   -2.595960
     11          6           0        5.819140   -2.603010   -2.473650
     12          6           0        6.463960   -1.771310   -1.559140
     13          7           0        6.902570    2.225050    2.793470
     14          6           0        6.347990    1.582060    2.004010
     15          1           0        7.483490   -0.118250    0.272100
     16          1           0        2.612960   -1.678030   -1.926790
     17          1           0        3.930580   -3.202620   -3.310180
     18          1           0        6.397720   -3.288060   -3.088960
     19          1           0        7.549060   -1.823980   -1.485730
 ---------------------------------------------------------------------
                    Distance matrix (angstroms):
                    1          2          3          4          5
     1  N    0.000000
     2  C    1.160037   0.000000
     3  C    2.592735   1.432750   0.000000
     4  C    3.461011   2.411593   1.396309   0.000000
     5  C    4.802271   3.699093   2.417941   1.388796   0.000000
     6  C    5.380626   4.221288   2.790446   2.409077   1.396327
     7  C    4.886150   3.767549   2.433754   2.804002   2.434939
     8  C    3.552781   2.495034   1.416897   2.446182   2.826773
     9  C    3.720542   2.967738   2.497932   3.763374   4.241141
    10  C    5.087290   4.362843   3.768125   4.896731   5.079524
    11  C    6.070882   5.176817   4.242673   5.074101   4.869672
    12  C    5.985121   4.935351   3.721831   4.208001   3.716069
    13  N    6.819245   5.868346   4.831108   3.491804   2.589590
    14  C    5.856055   4.842283   3.718900   2.433096   1.430241
    15  H    6.470103   5.311064   3.880648   3.392998   2.151823
    16  H    3.114090   2.677861   2.774738   4.161980   4.915947
    17  H    5.555055   5.011778   4.650001   5.868337   6.142045
    18  H    7.102495   6.243094   5.329877   6.131457   5.830935
    19  H    6.984617   5.899141   4.602261   4.848575   4.072635
                    6          7          8          9         10
     6  C    0.000000
     7  C    1.404726   0.000000
     8  C    2.444294   1.418667   0.000000
     9  C    3.719659   2.428983   1.415312   0.000000
    10  C    4.213518   2.808899   2.451653   1.396138   0.000000
    11  C    3.715830   2.435122   2.826740   2.411244   1.388760
    12  C    2.435793   1.404184   2.442238   2.780872   2.408907
    13  N    3.512070   4.856592   5.415998   6.830233   7.615500
    14  C    2.459016   3.747396   4.256760   5.671149   6.476548
    15  H    1.090256   2.165377   3.432724   4.592549   4.843291
    16  H    4.621947   3.429547   2.185933   1.089445   2.132118
    17  H    5.301086   3.896478   3.433244   2.156025   1.087591
    18  H    4.589048   3.418274   3.914168   3.397877   2.150264
    19  H    2.680561   2.171113   3.434476   3.869480   3.384937
                   11         12         13         14         15
    11  C    0.000000
    12  C    1.394219   0.000000
    13  N    7.226793   5.925241   0.000000
    14  C    6.151742   4.894341   1.159415   0.000000
    15  H    4.059955   2.669361   3.490821   2.679539   0.000000
    16  H    3.381454   3.869634   7.477676   6.326913   5.566875
    17  H    2.150808   3.395998   8.691770   7.548354   5.913479
    18  H    1.087499   2.155288   8.077886   7.046906   4.745874
    19  H    2.139041   1.088855   5.926563   5.022147   2.450261
                   16         17         18         19
    16  H    0.000000
    17  H    2.444231   0.000000
    18  H    4.274020   2.478511   0.000000
    19  H    4.957915   4.280498   2.457531   0.000000
 Stoichiometry    C12H5N2(1-)
 Framework group  C1[X(C12H5N2)]
 Deg. of freedom    51
 Full point group                 C1      NOp   1
 Largest Abelian subgroup         C1      NOp   1
 Largest concise Abelian subgroup C1      NOp   1
                         Standard orientation:                         
 ---------------------------------------------------------------------
 Center     Atomic      Atomic             Coordinates (Angstroms)
 Number     Number       Type             X           Y           Z
 ---------------------------------------------------------------------
      1          7           0       -0.509246    3.799676    0.042015
      2          6           0       -0.213192    2.678680    0.004516
      3          6           0        0.140235    1.290602   -0.028674
      4          6           0        1.502507    0.984199   -0.025361
      5          6           0        1.927435   -0.337989   -0.022183
      6          6           0        0.985484   -1.368744   -0.023975
      7          6           0       -0.390205   -1.084628   -0.020166
      8          6           0       -0.834803    0.262546   -0.028545
      9          6           0       -2.229786    0.501525   -0.024091
     10          6           0       -3.147544   -0.549928    0.012883
     11          6           0       -2.696836   -1.863361    0.033174
     12          6           0       -1.328405   -2.129021    0.007336
     13          7           0        4.461218   -0.869006    0.040629
     14          6           0        3.328587   -0.623364    0.008243
     15          1           0        1.326625   -2.404226   -0.016425
     16          1           0       -2.625259    1.516493   -0.042349
     17          1           0       -4.214385   -0.339218    0.030327
     18          1           0       -3.410229   -2.683294    0.071068
     19          1           0       -1.001422   -3.167544    0.019928
 ---------------------------------------------------------------------
 Rotational constants (GHZ):      1.0068231      0.6047757      0.3778955
 Standard basis: STO-3G (5D, 7F)
 There are    75 symmetry adapted cartesian basis functions of A   symmetry.
 There are    75 symmetry adapted basis functions of A   symmetry.
    75 basis functions,   225 primitive gaussians,    75 cartesian basis functions
    46 alpha electrons       46 beta electrons
       nuclear repulsion energy       707.8835683750 Hartrees.
 NAtoms=   19 NActive=   19 NUniq=   19 SFac= 1.00D+00 NAtFMM=   60 NAOKFM=F Big=F
 Integral buffers will be    131072 words long.
 Raffenetti 2 integral format.
 Two-electron integral symmetry is turned on.
 One-electron integrals computed using PRISM.
 NBasis=    75 RedAO= T EigKep=  1.54D-01  NBF=    75
 NBsUse=    75 1.00D-06 EigRej= -1.00D+00 NBFU=    75
 ExpMin= 1.69D-01 ExpMax= 9.91D+01 ExpMxC= 9.91D+01 IAcc=1 IRadAn=         1 AccDes= 0.00D+00
 Harris functional with IExCor=  402 and IRadAn=       1 diagonalized for initial guess.
 HarFok:  IExCor=  402 AccDes= 0.00D+00 IRadAn=         1 IDoV= 1 UseB2=F ITyADJ=14
 ICtDFT=  3500011 ScaDFX=  1.000000  1.000000  1.000000  1.000000
 FoFCou: FMM=F IPFlag=           0 FMFlag=      100000 FMFlg1=           0
         NFxFlg=           0 DoJE=T BraDBF=F KetDBF=T FulRan=T
         wScrn=  0.000000 ICntrl=     500 IOpCl=  0 I1Cent=   200000004 NGrid=           0
         NMat0=    1 NMatS0=      1 NMatT0=    0 NMatD0=    1 NMtDS0=    0 NMtDT0=    0
 Petite list used in FoFCou.
 Keep R1 ints in memory in canonical form, NReq=4993994.
 Requested convergence on RMS density matrix=1.00D-08 within 128 cycles.
 Requested convergence on MAX density matrix=1.00D-06.
 Requested convergence on             energy=1.00D-06.
 No special actions if energy rises.
 Integral accuracy reduced to 1.0D-05 until final iterations.
 EnCoef did     4 forward-backward iterations
 Initial convergence to 1.0D-05 achieved.  Increase integral accuracy.
 SCF Done:  E(RB3LYP) =  -562.492971634     A.U. after   41 cycles
            NFock= 41  Conv=0.34D-08     -V/T= 2.0128

 **********************************************************************

            Population analysis using the SCF density.

 **********************************************************************

 Orbital symmetries:
       Occupied  (A) (A) (A) (A) (A) (A) (A) (A) (A) (A) (A) (A)
                 (A) (A) (A) (A) (A) (A) (A) (A) (A) (A) (A) (A)
                 (A) (A) (A) (A) (A) (A) (A) (A) (A) (A) (A) (A)
                 (A) (A) (A) (A) (A) (A) (A) (A) (A) (A)
       Virtual   (A) (A) (A) (A) (A) (A) (A) (A) (A) (A) (A) (A)
                 (A) (A) (A) (A) (A) (A) (A) (A) (A) (A) (A) (A)
                 (A) (A) (A) (A) (A)
 The electronic state is 1-A.
 Alpha  occ. eigenvalues --  -13.95933 -13.93806  -9.87528  -9.87463  -9.87329
 Alpha  occ. eigenvalues --   -9.87172  -9.87045  -9.86741  -9.86515  -9.85897
 Alpha  occ. eigenvalues --   -9.85620  -9.85070  -9.83350  -9.66574  -0.71568
 Alpha  occ. eigenvalues --   -0.70048  -0.68728  -0.62958  -0.58994  -0.55883
 Alpha  occ. eigenvalues --   -0.52424  -0.45659  -0.42990  -0.40860  -0.36654
 Alpha  occ. eigenvalues --   -0.33596  -0.29772  -0.27720  -0.25050  -0.24749
 Alpha  occ. eigenvalues --   -0.24014  -0.20895  -0.20056  -0.17400  -0.16579
 Alpha  occ. eigenvalues --   -0.15845  -0.14633  -0.12561  -0.11985  -0.10956
 Alpha  occ. eigenvalues --   -0.10877  -0.09176  -0.07861  -0.03099   0.00912
 Alpha  occ. eigenvalues --    0.13622
 Alpha virt. eigenvalues --    0.16842   0.23187   0.26206   0.29809   0.30488
 Alpha virt. eigenvalues --    0.32386   0.37735   0.39425   0.47771   0.49366
 Alpha virt. eigenvalues --    0.49657   0.51652   0.55006   0.56962   0.59263
 Alpha virt. eigenvalues --    0.60435   0.63111   0.63778   0.70608   0.71704
 Alpha virt. eigenvalues --    0.75134   0.77954   0.80782   0.85040   0.89963
 Alpha virt. eigenvalues --    0.96610   0.99016   1.17874   1.19367
          Condensed to atoms (all electrons):
               1          2          3          4          5          6
     1  N    6.612421   0.685874  -0.011445  -0.000180  -0.000002   0.000000
     2  C    0.685874   4.908721   0.422556  -0.038361   0.001442  -0.000016
     3  C   -0.011445   0.422556   4.826884   0.485797  -0.028840  -0.013520
     4  C   -0.000180  -0.038361   0.485797   5.405361   0.457823  -0.030745
     5  C   -0.000002   0.001442  -0.028840   0.457823   4.795454   0.496149
     6  C    0.000000  -0.000016  -0.013520  -0.030745   0.496149   4.864651
     7  C   -0.000002   0.000864  -0.032784  -0.011710  -0.030527   0.485246
     8  C    0.000066  -0.037402   0.457451  -0.028996  -0.011434  -0.028162
     9  C   -0.000101  -0.003712  -0.028115   0.000950   0.000048   0.001049
    10  C    0.000001   0.000005   0.000814  -0.000012   0.000000   0.000032
    11  C    0.000000   0.000000   0.000036   0.000000  -0.000010   0.000969
    12  C    0.000000  -0.000008   0.000967   0.000017   0.000911  -0.033544
    13  N    0.000000   0.000000  -0.000003  -0.000012  -0.010968  -0.000035
    14  C    0.000000  -0.000002   0.001437  -0.038600   0.416817  -0.040533
    15  H    0.000000   0.000002   0.000107   0.001659  -0.025980   0.380872
    16  H   -0.000098   0.001514  -0.003537   0.000024   0.000000  -0.000020
    17  H    0.000000   0.000000  -0.000017   0.000000   0.000000   0.000001
    18  H    0.000000   0.000000   0.000001   0.000000   0.000000  -0.000021
    19  H    0.000000   0.000000  -0.000020   0.000000   0.000027  -0.004284
               7          8          9         10         11         12
     1  N   -0.000002   0.000066  -0.000101   0.000001   0.000000   0.000000
     2  C    0.000864  -0.037402  -0.003712   0.000005   0.000000  -0.000008
     3  C   -0.032784   0.457451  -0.028115   0.000814   0.000036   0.000967
     4  C   -0.011710  -0.028996   0.000950  -0.000012   0.000000   0.000017
     5  C   -0.030527  -0.011434   0.000048   0.000000  -0.000010   0.000911
     6  C    0.485246  -0.028162   0.001049   0.000032   0.000969  -0.033544
     7  C    4.781936   0.470217  -0.030017  -0.010500  -0.029666   0.484445
     8  C    0.470217   4.800430   0.474080  -0.027470  -0.010101  -0.028714
     9  C   -0.030017   0.474080   4.837886   0.518326  -0.031378  -0.012630
    10  C   -0.010500  -0.027470   0.518326   4.821905   0.491409  -0.030920
    11  C   -0.029666  -0.010101  -0.031378   0.491409   4.828962   0.519939
    12  C    0.484445  -0.028714  -0.012630  -0.030920   0.519939   4.825818
    13  N   -0.000001   0.000000   0.000000   0.000000   0.000000   0.000000
    14  C    0.000936  -0.000032   0.000000   0.000000   0.000000  -0.000009
    15  H   -0.026763   0.001343  -0.000017  -0.000001   0.000029  -0.004614
    16  H    0.001389  -0.024721   0.389604  -0.028262   0.001551   0.000046
    17  H    0.000029   0.001399  -0.025789   0.390156  -0.026882   0.001541
    18  H    0.001448   0.000031   0.001539  -0.026779   0.390798  -0.026077
    19  H   -0.025069   0.001381   0.000043   0.001554  -0.027501   0.389620
              13         14         15         16         17         18
     1  N    0.000000   0.000000   0.000000  -0.000098   0.000000   0.000000
     2  C    0.000000  -0.000002   0.000002   0.001514   0.000000   0.000000
     3  C   -0.000003   0.001437   0.000107  -0.003537  -0.000017   0.000001
     4  C   -0.000012  -0.038600   0.001659   0.000024   0.000000   0.000000
     5  C   -0.010968   0.416817  -0.025980   0.000000   0.000000   0.000000
     6  C   -0.000035  -0.040533   0.380872  -0.000020   0.000001  -0.000021
     7  C   -0.000001   0.000936  -0.026763   0.001389   0.000029   0.001448
     8  C    0.000000  -0.000032   0.001343  -0.024721   0.001399   0.000031
     9  C    0.000000   0.000000  -0.000017   0.389604  -0.025789   0.001539
    10  C    0.000000   0.000000  -0.000001  -0.028262   0.390156  -0.026779
    11  C    0.000000   0.000000   0.000029   0.001551  -0.026882   0.390798
    12  C    0.000000  -0.000009  -0.004614   0.000046   0.001541  -0.026077
    13  N    6.594175   0.688205   0.000038   0.000000   0.000000   0.000000
    14  C    0.688205   4.910088  -0.002537   0.000000   0.000000   0.000000
    15  H    0.000038  -0.002537   0.624571   0.000001   0.000000  -0.000002
    16  H    0.000000   0.000000   0.000001   0.598903  -0.004123  -0.000040
    17  H    0.000000   0.000000   0.000000  -0.004123   0.613398  -0.003910
    18  H    0.000000   0.000000  -0.000002  -0.000040  -0.003910   0.615973
    19  H    0.000000  -0.000001   0.000960   0.000002  -0.000040  -0.004077
              19
     1  N    0.000000
     2  C    0.000000
     3  C   -0.000020
     4  C    0.000000
     5  C    0.000027
     6  C   -0.004284
     7  C   -0.025069
     8  C    0.001381
     9  C    0.000043
    10  C    0.001554
    11  C   -0.027501
    12  C    0.389620
    13  N    0.000000
    14  C   -0.000001
    15  H    0.000960
    16  H    0.000002
    17  H   -0.000040
    18  H   -0.004077
    19  H    0.610089
 Mulliken charges:
               1
     1  N   -0.286533
     2  C    0.058522
     3  C   -0.077770
     4  C   -0.203015
     5  C   -0.060911
     6  C   -0.078091
     7  C   -0.029471
     8  C   -0.009366
     9  C   -0.091765
    10  C   -0.100257
    11  C   -0.108154
    12  C   -0.086790
    13  N   -0.271398
    14  C    0.064231
    15  H    0.050333
    16  H    0.067768
    17  H    0.054237
    18  H    0.051114
    19  H    0.057316
 Sum of Mulliken charges =  -1.00000
 Mulliken charges with hydrogens summed into heavy atoms:
               1
     1  N   -0.286533
     2  C    0.058522
     3  C   -0.077770
     4  C   -0.203015
     5  C   -0.060911
     6  C   -0.027758
     7  C   -0.029471
     8  C   -0.009366
     9  C   -0.023997
    10  C   -0.046020
    11  C   -0.057040
    12  C   -0.029474
    13  N   -0.271398
    14  C    0.064231
 Electronic spatial extent (au):  <R**2>=           2714.3779
 Charge=             -1.0000 electrons
 Dipole moment (field-independent basis, Debye):
    X=             -6.1670    Y=             -5.5458    Z=             -0.0761  Tot=              8.2942
 Quadrupole moment (field-independent basis, Debye-Ang):
   XX=           -110.0404   YY=            -99.6206   ZZ=            -73.8070
   XY=              2.3271   XZ=             -0.2329   YZ=             -0.2200
 Traceless Quadrupole moment (field-independent basis, Debye-Ang):
   XX=            -15.5511   YY=             -5.1313   ZZ=             20.6823
   XY=              2.3271   XZ=             -0.2329   YZ=             -0.2200
 Octapole moment (field-independent basis, Debye-Ang**2):
  XXX=           -146.5917  YYY=           -102.0131  ZZZ=              0.2112  XYY=              5.1131
  XXY=             23.1154  XXZ=             -1.2528  XZZ=              5.2219  YZZ=              3.3756
  YYZ=             -1.0889  XYZ=              0.8315
 Hexadecapole moment (field-independent basis, Debye-Ang**3):
 XXXX=          -2817.1236 YYYY=          -1679.1985 ZZZZ=            -58.2820 XXXY=            107.1256
 XXXZ=             -8.3987 YYYX=             42.7870 YYYZ=             -5.9104 ZZZX=              0.4474
 ZZZY=              0.3371 XXYY=           -606.0430 XXZZ=           -365.1590 YYZZ=           -225.3466
 XXYZ=              1.2021 YYXZ=              0.4991 ZZXY=             -6.5309
 N-N= 7.078835683750D+02 E-N=-2.738293669473D+03  KE= 5.553772440788D+02
 Calling FoFJK, ICntrl=      2127 FMM=F ISym2X=0 I1Cent= 0 IOpClX= 0 NMat=1 NMatS=1 NMatT=0.
 ***** Axes restored to original set *****
 -------------------------------------------------------------------
 Center     Atomic                   Forces (Hartrees/Bohr)
 Number     Number              X              Y              Z
 -------------------------------------------------------------------
      1        7          -0.106143539    0.007100272    0.001894711
      2        6           0.076716618   -0.010115075   -0.009872829
      3        6           0.038321118    0.012162745    0.016953311
      4        6          -0.070943489    0.045251017    0.039899386
      5        6           0.005505351   -0.036838019   -0.039067609
      6        6           0.026602094    0.018843031    0.022089419
      7        6           0.014842468   -0.000267887    0.000362163
      8        6          -0.024720532   -0.012086012   -0.013918125
      9        6          -0.000121797   -0.022296267   -0.021910862
     10        6          -0.031294066    0.009113075    0.005208927
     11        6           0.032110323    0.002617307    0.006508829
     12        6           0.005210167   -0.024924456   -0.024744574
     13        7           0.048848923    0.060071317    0.072505924
     14        6          -0.025761968   -0.041134779   -0.047911039
     15        1           0.010293627   -0.004647532   -0.004739888
     16        1          -0.007645292    0.003929143    0.003856167
     17        1          -0.004114541   -0.004682981   -0.005901258
     18        1           0.004789312   -0.004543269   -0.004543396
     19        1           0.007505222    0.002448371    0.003330740
 -------------------------------------------------------------------
 Cartesian Forces:  Max     0.106143539 RMS     0.030887094

 GradGradGradGradGradGradGradGradGradGradGradGradGradGradGradGradGradGrad
 Berny optimization.
 FormGI is forming the generalized inverse of G from B-inverse, IUseBI=4.
 Internal  Forces:  Max     0.106358704 RMS     0.020996615
 Search for a local minimum.
 Step number   1 out of a maximum of  102
 All quantities printed in internal units (Hartrees-Bohrs-Radians)
 Mixed Optimization -- RFO/linear search
 Second derivative matrix not updated -- first step.
 ITU=  0
     Eigenvalues ---    0.01656   0.01656   0.01891   0.01899   0.01945
     Eigenvalues ---    0.01964   0.02011   0.02044   0.02061   0.02081
     Eigenvalues ---    0.02096   0.02159   0.02176   0.02178   0.02182
     Eigenvalues ---    0.02206   0.04874   0.04874   0.15999   0.15999
     Eigenvalues ---    0.16000   0.16000   0.16000   0.21999   0.22554
     Eigenvalues ---    0.23533   0.24503   0.24992   0.24996   0.24998
     Eigenvalues ---    0.25000   0.34783   0.34877   0.34945   0.35093
     Eigenvalues ---    0.35103   0.38414   0.40570   0.40597   0.40955
     Eigenvalues ---    0.41018   0.43332   0.43763   0.45338   0.45568
     Eigenvalues ---    0.45694   0.45781   0.46961   0.47009   1.27769
     Eigenvalues ---    1.28178
 RFO step:  Lambda=-5.93339838D-02 EMin= 1.65554025D-02
 Linear search not attempted -- first point.
 Maximum step size (   0.300) exceeded in Quadratic search.
    -- Step size scaled by   0.850
 Iteration  1 RMS(Cart)=  0.04428165 RMS(Int)=  0.00088581
 Iteration  2 RMS(Cart)=  0.00172637 RMS(Int)=  0.00022366
 Iteration  3 RMS(Cart)=  0.00000078 RMS(Int)=  0.00022365
 Variable       Old X    -DE/DX   Delta X   Delta X   Delta X     New X
                                 (Linear)    (Quad)   (Total)
    R1        2.19215   0.10636   0.00000   0.06762   0.06762   2.25978
    R2        2.70750   0.02922   0.00000   0.05338   0.05338   2.76088
    R3        2.63864   0.02127   0.00000   0.03517   0.03559   2.67423
    R4        2.67755   0.04014   0.00000   0.06963   0.06977   2.74732
    R5        2.62444   0.05798   0.00000   0.09288   0.09316   2.71761
    R6        2.63868   0.02044   0.00000   0.03351   0.03339   2.67206
    R7        2.70276   0.03821   0.00000   0.06928   0.06928   2.77205
    R8        2.65455   0.02820   0.00000   0.04669   0.04626   2.70081
    R9        2.06028   0.01007   0.00000   0.02103   0.02103   2.08131
   R10        2.68089   0.03315   0.00000   0.05785   0.05752   2.73841
   R11        2.65352   0.03171   0.00000   0.05363   0.05361   2.70713
   R12        2.67455   0.02354   0.00000   0.04066   0.04066   2.71521
   R13        2.63832  -0.00006   0.00000  -0.00072  -0.00070   2.63762
   R14        2.05875   0.00715   0.00000   0.01490   0.01490   2.07365
   R15        2.62438   0.03838   0.00000   0.06047   0.06050   2.68487
   R16        2.05525   0.00857   0.00000   0.01775   0.01775   2.07300
   R17        2.63469  -0.00005   0.00000   0.00000   0.00000   2.63469
   R18        2.05508   0.00798   0.00000   0.01654   0.01654   2.07161
   R19        2.05764   0.00759   0.00000   0.01578   0.01578   2.07342
   R20        2.19098   0.10605   0.00000   0.06722   0.06722   2.25820
    A1        2.04115  -0.00316   0.00000  -0.00892  -0.00919   2.03196
    A2        2.13317  -0.02117   0.00000  -0.05843  -0.05870   2.07446
    A3        2.10849   0.02437   0.00000   0.06772   0.06817   2.17666
    A4        2.10300  -0.04181   0.00000  -0.11164  -0.11058   1.99242
    A5        2.09022   0.02826   0.00000   0.07935   0.07943   2.16965
    A6        2.08260  -0.00851   0.00000  -0.02417  -0.02423   2.05837
    A7        2.11018  -0.01973   0.00000  -0.05501  -0.05507   2.05511
    A8        2.10754  -0.00302   0.00000  -0.00964  -0.01030   2.09724
    A9        2.08290   0.00865   0.00000   0.03250   0.03283   2.11573
   A10        2.09267  -0.00563   0.00000  -0.02285  -0.02252   2.07015
   A11        2.09320  -0.00712   0.00000  -0.02233  -0.02311   2.07009
   A12        2.09897   0.00937   0.00000   0.02595   0.02645   2.12542
   A13        2.09095  -0.00224   0.00000  -0.00359  -0.00332   2.08763
   A14        2.06388  -0.00067   0.00000  -0.00345  -0.00367   2.06021
   A15        2.16006   0.00417   0.00000   0.01201   0.01220   2.17226
   A16        2.05920  -0.00350   0.00000  -0.00849  -0.00849   2.05071
   A17        2.11862   0.00192   0.00000   0.00399   0.00392   2.12254
   A18        2.11186  -0.00724   0.00000  -0.02631  -0.02628   2.08558
   A19        2.05268   0.00532   0.00000   0.02235   0.02238   2.07506
   A20        2.09360   0.00361   0.00000   0.00819   0.00815   2.10176
   A21        2.09362  -0.00199   0.00000  -0.00481  -0.00479   2.08883
   A22        2.09595  -0.00162   0.00000  -0.00338  -0.00336   2.09259
   A23        2.09264  -0.00005   0.00000  -0.00160  -0.00166   2.09097
   A24        2.09518   0.00065   0.00000   0.00324   0.00327   2.09845
   A25        2.09537  -0.00061   0.00000  -0.00164  -0.00161   2.09376
   A26        2.11114   0.00027   0.00000   0.00160   0.00149   2.11263
   A27        2.10479  -0.00424   0.00000  -0.01669  -0.01664   2.08815
   A28        2.06720   0.00397   0.00000   0.01513   0.01518   2.08239
   A29        3.13283   0.00650   0.00000   0.07276   0.07276   3.20559
   A30        3.12891   0.00487   0.00000   0.03829   0.03829   3.16719
   A31        3.15105   0.00016   0.00000   0.00177   0.00177   3.15281
   A32        3.14977  -0.00100   0.00000  -0.00784  -0.00784   3.14194
    D1        3.11314   0.00103   0.00000   0.01253   0.01293   3.12607
    D2        0.00026  -0.00003   0.00000  -0.00073  -0.00062  -0.00036
    D3       -3.10749  -0.00207   0.00000  -0.02175  -0.02151  -3.12900
    D4        0.02372  -0.00137   0.00000  -0.01410  -0.01395   0.00977
    D5        0.00384  -0.00061   0.00000  -0.00680  -0.00675  -0.00291
    D6        3.13505   0.00009   0.00000   0.00085   0.00080   3.13586
    D7        0.00138   0.00076   0.00000   0.00868   0.00879   0.01018
    D8       -3.11988   0.00003   0.00000  -0.00010  -0.00034  -3.12022
    D9       -0.00729  -0.00085   0.00000  -0.00896  -0.00922  -0.01650
   D10       -3.13630  -0.00090   0.00000  -0.00980  -0.01010   3.13679
   D11        3.11365   0.00004   0.00000   0.00036   0.00027   3.11391
   D12       -0.01536  -0.00001   0.00000  -0.00048  -0.00062  -0.01598
   D13        0.01148   0.00010   0.00000   0.00097   0.00068   0.01216
   D14       -3.11739  -0.00015   0.00000  -0.00164  -0.00184  -3.11923
   D15        3.14042   0.00024   0.00000   0.00221   0.00194  -3.14083
   D16        0.01155   0.00000   0.00000  -0.00040  -0.00058   0.01097
   D17       -0.00960   0.00057   0.00000   0.00667   0.00659  -0.00301
   D18       -3.14142  -0.00013   0.00000  -0.00065  -0.00056   3.14120
   D19        3.11933   0.00091   0.00000   0.00948   0.00927   3.12860
   D20       -0.01249   0.00020   0.00000   0.00216   0.00212  -0.01037
   D21        3.12344   0.00041   0.00000   0.00443   0.00440   3.12784
   D22       -0.00644   0.00001   0.00000   0.00047   0.00046  -0.00598
   D23       -0.00545   0.00020   0.00000   0.00196   0.00200  -0.00345
   D24       -3.13533  -0.00020   0.00000  -0.00200  -0.00194  -3.13727
   D25       -3.11049  -0.00118   0.00000  -0.01250  -0.01239  -3.12288
   D26        0.02344  -0.00079   0.00000  -0.00842  -0.00837   0.01507
   D27        0.02075  -0.00047   0.00000  -0.00485  -0.00484   0.01591
   D28       -3.12851  -0.00007   0.00000  -0.00077  -0.00083  -3.12934
   D29       -0.01087   0.00027   0.00000   0.00328   0.00333  -0.00754
   D30        3.12587   0.00048   0.00000   0.00547   0.00550   3.13136
   D31        3.13813  -0.00005   0.00000  -0.00046  -0.00045   3.13768
   D32       -0.00831   0.00015   0.00000   0.00173   0.00171  -0.00660
   D33       -0.00764   0.00004   0.00000   0.00078   0.00078  -0.00686
   D34        3.13193   0.00017   0.00000   0.00199   0.00199   3.13392
   D35        3.13882  -0.00016   0.00000  -0.00140  -0.00139   3.13742
   D36       -0.00480  -0.00004   0.00000  -0.00019  -0.00018  -0.00498
   D37        0.01579  -0.00034   0.00000  -0.00351  -0.00353   0.01226
   D38       -3.13727  -0.00001   0.00000   0.00016   0.00019  -3.13708
   D39       -3.12377  -0.00047   0.00000  -0.00473  -0.00475  -3.12852
   D40        0.00635  -0.00013   0.00000  -0.00106  -0.00103   0.00532
         Item               Value     Threshold  Converged?
 Maximum Force            0.106359     0.000450     NO 
 RMS     Force            0.020997     0.000300     NO 
 Maximum Displacement     0.130016     0.001800     NO 
 RMS     Displacement     0.043610     0.001200     NO 
 Predicted change in Energy=-3.171399D-02
 GradGradGradGradGradGradGradGradGradGradGradGradGradGradGradGradGradGrad

                          Input orientation:                          
 ---------------------------------------------------------------------
 Center     Atomic      Atomic             Coordinates (Angstroms)
 Number     Number       Type             X           Y           Z
 ---------------------------------------------------------------------
      1          7           0        0.956716    0.196817   -0.011715
      2          6           0        2.149244    0.108516   -0.020192
      3          6           0        3.607533    0.052517    0.048847
      4          6           0        4.225309    0.891468    1.006521
      5          6           0        5.658733    0.782830    1.046677
      6          6           0        6.417436   -0.067139    0.209238
      7          6           0        5.762703   -0.907610   -0.743426
      8          6           0        4.317647   -0.854699   -0.837882
      9          6           0        3.684257   -1.709222   -1.803841
     10          6           0        4.423807   -2.574847   -2.611265
     11          6           0        5.839501   -2.626466   -2.502892
     12          6           0        6.495167   -1.801449   -1.590041
     13          7           0        6.945080    2.270688    2.840029
     14          6           0        6.382334    1.596561    2.029558
     15          1           0        7.515793   -0.106772    0.280571
     16          1           0        2.592404   -1.687115   -1.911082
     17          1           0        3.906683   -3.220478   -3.331763
     18          1           0        6.416709   -3.312676   -3.133536
     19          1           0        7.589015   -1.844863   -1.516067
 ---------------------------------------------------------------------
                    Distance matrix (angstroms):
                    1          2          3          4          5
     1  N    0.000000
     2  C    1.195823   0.000000
     3  C    2.655433   1.460996   0.000000
     4  C    3.493286   2.444831   1.415141   0.000000
     5  C    4.855160   3.729534   2.395088   1.438096   0.000000
     6  C    5.471559   4.277962   2.817020   2.521906   1.413996
     7  C    4.985246   3.822652   2.488834   2.943226   2.464319
     8  C    3.617195   2.509656   1.453819   2.541544   2.834004
     9  C    3.779443   2.973524   2.557746   3.867100   4.270169
    10  C    5.143977   4.368951   3.826949   5.014291   5.116598
    11  C    6.165914   5.221296   4.320880   5.224697   4.924980
    12  C    6.095787   4.999944   3.802837   4.375636   3.785552
    13  N    6.949381   5.987980   4.883667   3.558252   2.661676
    14  C    5.963507   4.933032   3.742567   2.489281   1.466905
    15  H    6.572601   5.379280   3.918362   3.514366   2.197039
    16  H    3.135645   2.645023   2.810360   4.222306   4.924565
    17  H    5.603832   5.013711   4.714924   5.985844   6.186025
    18  H    7.202349   6.293546   5.416969   6.294214   5.901007
    19  H    7.100629   5.970297   4.679872   5.016521   4.147098
                    6          7          8          9         10
     6  C    0.000000
     7  C    1.429208   0.000000
     8  C    2.475041   1.449106   0.000000
     9  C    3.770835   2.467185   1.436826   0.000000
    10  C    4.268301   2.839215   2.472866   1.395769   0.000000
    11  C    3.773568   2.460912   2.868355   2.444399   1.420775
    12  C    2.500255   1.432553   2.490717   2.820537   2.435482
    13  N    3.558779   4.933634   5.495315   6.930959   7.717035
    14  C    2.466312   3.787381   4.300445   5.736094   6.540161
    15  H    1.101383   2.182483   3.469649   4.646858   4.900457
    16  H    4.663791   3.467253   2.195709   1.097330   2.152292
    17  H    5.365270   3.936199   3.461971   2.160535   1.096985
    18  H    4.659147   3.453215   3.964560   3.435905   2.188337
    19  H    2.740360   2.193361   3.484567   3.917697   3.427956
                   11         12         13         14         15
    11  C    0.000000
    12  C    1.394220   0.000000
    13  N    7.331523   6.034090   0.000000
    14  C    6.218660   4.965954   1.194987   0.000000
    15  H    4.111749   2.722645   3.539612   2.691659   0.000000
    16  H    3.431656   3.917613   7.561947   6.377675   5.616100
    17  H    2.185330   3.427461   8.802033   7.620793   5.980786
    18  H    1.096250   2.161560   8.193694   7.124559   4.810606
    19  H    2.155348   1.097206   6.027270   5.086348   2.500846
                   16         17         18         19
    16  H    0.000000
    17  H    2.469184   0.000000
    18  H    4.331530   2.519529   0.000000
    19  H    5.014683   4.329970   2.478908   0.000000
 Stoichiometry    C12H5N2(1-)
 Framework group  C1[X(C12H5N2)]
 Deg. of freedom    51
 Full point group                 C1      NOp   1
 Largest Abelian subgroup         C1      NOp   1
 Largest concise Abelian subgroup C1      NOp   1
                         Standard orientation:                         
 ---------------------------------------------------------------------
 Center     Atomic      Atomic             Coordinates (Angstroms)
 Number     Number       Type             X           Y           Z
 ---------------------------------------------------------------------
      1          7           0       -0.534428    3.862939    0.025921
      2          6           0       -0.257894    2.699859   -0.001750
      3          6           0        0.170183    1.303091   -0.019124
      4          6           0        1.566380    1.072309   -0.019261
      5          6           0        1.933042   -0.318255   -0.016314
      6          6           0        1.006982   -1.386765   -0.025368
      7          6           0       -0.397132   -1.120222   -0.018038
      8          6           0       -0.841537    0.259057   -0.016737
      9          6           0       -2.258067    0.499610   -0.009815
     10          6           0       -3.178230   -0.549620    0.014394
     11          6           0       -2.731434   -1.898281    0.023778
     12          6           0       -1.365333   -2.175899    0.000417
     13          7           0        4.531062   -0.894649    0.034533
     14          6           0        3.361124   -0.652356    0.011461
     15          1           0        1.344810   -2.435056   -0.027097
     16          1           0       -2.630870    1.531618   -0.020346
     17          1           0       -4.252808   -0.329503    0.028778
     18          1           0       -3.456738   -2.719869    0.050063
     19          1           0       -1.029331   -3.220387    0.003565
 ---------------------------------------------------------------------
 Rotational constants (GHZ):      0.9723694      0.5882388      0.3665514
 Standard basis: STO-3G (5D, 7F)
 There are    75 symmetry adapted cartesian basis functions of A   symmetry.
 There are    75 symmetry adapted basis functions of A   symmetry.
    75 basis functions,   225 primitive gaussians,    75 cartesian basis functions
    46 alpha electrons       46 beta electrons
       nuclear repulsion energy       696.2623892878 Hartrees.
 NAtoms=   19 NActive=   19 NUniq=   19 SFac= 1.00D+00 NAtFMM=   60 NAOKFM=F Big=F
 Integral buffers will be    131072 words long.
 Raffenetti 2 integral format.
 Two-electron integral symmetry is turned on.
 One-electron integrals computed using PRISM.
 NBasis=    75 RedAO= T EigKep=  1.73D-01  NBF=    75
 NBsUse=    75 1.00D-06 EigRej= -1.00D+00 NBFU=    75
 Initial guess from the checkpoint file:  "/tmp/bnp.472665.sequoia/Gau-29925.chk"
 B after Tr=     0.000000    0.000000    0.000000
         Rot=    1.000000   -0.000041    0.000027   -0.000590 Ang=  -0.07 deg.
 ExpMin= 1.69D-01 ExpMax= 9.91D+01 ExpMxC= 9.91D+01 IAcc=1 IRadAn=         1 AccDes= 0.00D+00
 Harris functional with IExCor=  402 and IRadAn=       1 diagonalized for initial guess.
 HarFok:  IExCor=  402 AccDes= 0.00D+00 IRadAn=         1 IDoV= 1 UseB2=F ITyADJ=14
 ICtDFT=  3500011 ScaDFX=  1.000000  1.000000  1.000000  1.000000
 FoFCou: FMM=F IPFlag=           0 FMFlag=      100000 FMFlg1=           0
         NFxFlg=           0 DoJE=T BraDBF=F KetDBF=T FulRan=T
         wScrn=  0.000000 ICntrl=     500 IOpCl=  0 I1Cent=   200000004 NGrid=           0
         NMat0=    1 NMatS0=      1 NMatT0=    0 NMatD0=    1 NMtDS0=    0 NMtDT0=    0
 Petite list used in FoFCou.
 Keep R1 ints in memory in canonical form, NReq=4993994.
 Requested convergence on RMS density matrix=1.00D-08 within 128 cycles.
 Requested convergence on MAX density matrix=1.00D-06.
 Requested convergence on             energy=1.00D-06.
 No special actions if energy rises.
 Integral accuracy reduced to 1.0D-05 until final iterations.
 Initial convergence to 1.0D-05 achieved.  Increase integral accuracy.
 SCF Done:  E(RB3LYP) =  -562.523557306     A.U. after   17 cycles
            NFock= 17  Conv=0.79D-08     -V/T= 2.0139
 Calling FoFJK, ICntrl=      2127 FMM=F ISym2X=0 I1Cent= 0 IOpClX= 0 NMat=1 NMatS=1 NMatT=0.
 ***** Axes restored to original set *****
 -------------------------------------------------------------------
 Center     Atomic                   Forces (Hartrees/Bohr)
 Number     Number              X              Y              Z
 -------------------------------------------------------------------
      1        7          -0.010852242    0.000188075   -0.000887478
      2        6           0.002098222   -0.000998961   -0.001811544
      3        6           0.022312172   -0.003145306   -0.001230360
      4        6          -0.028372858    0.020830367    0.019219010
      5        6           0.009751783   -0.022247181   -0.022446144
      6        6           0.004151291    0.009756317    0.011182170
      7        6           0.001730228    0.000466813    0.000193717
      8        6          -0.006509682   -0.002701368   -0.002991941
      9        6           0.003144154   -0.008340779   -0.007486864
     10        6          -0.009587499    0.004942500    0.003976577
     11        6           0.009298519    0.003327669    0.004385508
     12        6          -0.003002442   -0.008304407   -0.008713132
     13        7           0.005454357    0.006067457    0.007266042
     14        6           0.000253285   -0.000918703   -0.001237095
     15        1           0.000337331   -0.000885073   -0.001216411
     16        1          -0.001437651    0.001767323    0.002241227
     17        1           0.000126551   -0.000726653   -0.001126680
     18        1          -0.000106787   -0.000643252   -0.001108687
     19        1           0.001211270    0.001565162    0.001792086
 -------------------------------------------------------------------
 Cartesian Forces:  Max     0.028372858 RMS     0.008707051

 GradGradGradGradGradGradGradGradGradGradGradGradGradGradGradGradGradGrad
 Berny optimization.
 Using GEDIIS/GDIIS optimizer.
 FormGI is forming the generalized inverse of G from B-inverse, IUseBI=4.
 Internal  Forces:  Max     0.021667137 RMS     0.004844902
 Search for a local minimum.
 Step number   2 out of a maximum of  102
 All quantities printed in internal units (Hartrees-Bohrs-Radians)
 Mixed Optimization -- RFO/linear search
 Update second derivatives using D2CorX and points    1    2
 DE= -3.06D-02 DEPred=-3.17D-02 R= 9.64D-01
 TightC=F SS=  1.41D+00  RLast= 3.03D-01 DXNew= 5.0454D-01 9.0802D-01
 Trust test= 9.64D-01 RLast= 3.03D-01 DXMaxT set to 5.05D-01
 ITU=  1  0
 Use linear search instead of GDIIS.
     Eigenvalues ---    0.01656   0.01698   0.01893   0.01901   0.01947
     Eigenvalues ---    0.01967   0.02015   0.02041   0.02061   0.02082
     Eigenvalues ---    0.02098   0.02159   0.02176   0.02178   0.02182
     Eigenvalues ---    0.02206   0.04874   0.04908   0.15905   0.16000
     Eigenvalues ---    0.16000   0.16000   0.16063   0.22002   0.22191
     Eigenvalues ---    0.22546   0.23565   0.24518   0.24998   0.24999
     Eigenvalues ---    0.25007   0.34818   0.34890   0.34961   0.35098
     Eigenvalues ---    0.35158   0.38810   0.40236   0.40648   0.40884
     Eigenvalues ---    0.41055   0.43186   0.44084   0.44804   0.45422
     Eigenvalues ---    0.45617   0.46292   0.46914   0.49723   1.27970
     Eigenvalues ---    1.36169
 RFO step:  Lambda=-5.39707673D-03 EMin= 1.65550348D-02
 Quartic linear search produced a step of  0.35182.
 Iteration  1 RMS(Cart)=  0.06975351 RMS(Int)=  0.00559119
 Iteration  2 RMS(Cart)=  0.00722166 RMS(Int)=  0.00034766
 Iteration  3 RMS(Cart)=  0.00006988 RMS(Int)=  0.00034557
 Iteration  4 RMS(Cart)=  0.00000001 RMS(Int)=  0.00034557
 Variable       Old X    -DE/DX   Delta X   Delta X   Delta X     New X
                                 (Linear)    (Quad)   (Total)
    R1        2.25978   0.01083   0.02379  -0.00968   0.01411   2.27389
    R2        2.76088   0.00884   0.01878   0.01195   0.03073   2.79161
    R3        2.67423   0.00837   0.01252   0.01400   0.02709   2.70132
    R4        2.74732   0.00409   0.02455  -0.00965   0.01504   2.76236
    R5        2.71761   0.02074   0.03278   0.02985   0.06306   2.78067
    R6        2.67206  -0.00474   0.01175  -0.02420  -0.01254   2.65952
    R7        2.77205   0.00971   0.02438   0.00944   0.03382   2.80587
    R8        2.70081   0.00400   0.01628  -0.00403   0.01166   2.71247
    R9        2.08131   0.00029   0.00740  -0.00567   0.00172   2.08304
   R10        2.73841   0.00143   0.02024  -0.01540   0.00428   2.74270
   R11        2.70713   0.00468   0.01886  -0.00314   0.01567   2.72280
   R12        2.71521   0.00314   0.01430  -0.00344   0.01085   2.72606
   R13        2.63762  -0.00534  -0.00024  -0.01522  -0.01541   2.62221
   R14        2.07365   0.00124   0.00524  -0.00006   0.00519   2.07884
   R15        2.68487   0.00741   0.02129   0.00166   0.02303   2.70790
   R16        2.07300   0.00111   0.00625  -0.00152   0.00473   2.07773
   R17        2.63469  -0.00456   0.00000  -0.01293  -0.01291   2.62179
   R18        2.07161   0.00099   0.00582  -0.00158   0.00423   2.07585
   R19        2.07342   0.00127   0.00555  -0.00024   0.00531   2.07873
   R20        2.25820   0.01092   0.02365  -0.00950   0.01415   2.27235
    A1        2.03196  -0.00139  -0.00323  -0.00489  -0.00860   2.02337
    A2        2.07446  -0.01076  -0.02065  -0.03825  -0.05936   2.01510
    A3        2.17666   0.01215   0.02398   0.04349   0.06793   2.24460
    A4        1.99242  -0.02167  -0.03890  -0.07224  -0.10949   1.88293
    A5        2.16965   0.01271   0.02795   0.04337   0.07145   2.24110
    A6        2.05837  -0.00457  -0.00853  -0.01719  -0.02593   2.03245
    A7        2.05511  -0.00814  -0.01937  -0.02598  -0.04556   2.00955
    A8        2.09724  -0.00059  -0.00362  -0.00266  -0.00716   2.09008
    A9        2.11573   0.00185   0.01155   0.00472   0.01669   2.13242
   A10        2.07015  -0.00126  -0.00792  -0.00197  -0.00947   2.06068
   A11        2.07009  -0.00239  -0.00813  -0.00960  -0.01887   2.05122
   A12        2.12542   0.00346   0.00931   0.01252   0.02262   2.14803
   A13        2.08763  -0.00107  -0.00117  -0.00286  -0.00371   2.08392
   A14        2.06021  -0.00021  -0.00129  -0.00243  -0.00412   2.05609
   A15        2.17226   0.00005   0.00429  -0.00158   0.00307   2.17534
   A16        2.05071   0.00016  -0.00299   0.00403   0.00100   2.05171
   A17        2.12254   0.00028   0.00138  -0.00076   0.00047   2.12301
   A18        2.08558  -0.00316  -0.00925  -0.01601  -0.02521   2.06037
   A19        2.07506   0.00287   0.00787   0.01680   0.02472   2.09979
   A20        2.10176   0.00032   0.00287  -0.00139   0.00145   2.10320
   A21        2.08883   0.00059  -0.00168   0.00708   0.00540   2.09424
   A22        2.09259  -0.00091  -0.00118  -0.00567  -0.00685   2.08574
   A23        2.09097  -0.00006  -0.00058  -0.00004  -0.00068   2.09029
   A24        2.09845  -0.00076   0.00115  -0.00721  -0.00603   2.09242
   A25        2.09376   0.00081  -0.00057   0.00725   0.00671   2.10047
   A26        2.11263   0.00036   0.00052   0.00129   0.00160   2.11423
   A27        2.08815  -0.00262  -0.00585  -0.01520  -0.02097   2.06718
   A28        2.08239   0.00227   0.00534   0.01396   0.01939   2.10177
   A29        3.20559  -0.00257   0.02560  -0.19659  -0.17099   3.03460
   A30        3.16719  -0.00076   0.01347  -0.03423  -0.02076   3.14644
   A31        3.15281  -0.00046   0.00062  -0.02920  -0.02857   3.12424
   A32        3.14194  -0.00009  -0.00276   0.00088  -0.00187   3.14006
    D1        3.12607   0.00065   0.00455   0.02908   0.03434  -3.12277
    D2       -0.00036   0.00006  -0.00022   0.00149   0.00143   0.00108
    D3       -3.12900  -0.00095  -0.00757  -0.04105  -0.04813   3.10605
    D4        0.00977  -0.00068  -0.00491  -0.02966  -0.03434  -0.02457
    D5       -0.00291  -0.00026  -0.00238  -0.01254  -0.01495  -0.01786
    D6        3.13586   0.00001   0.00028  -0.00115  -0.00116   3.13470
    D7        0.01018   0.00023   0.00309   0.00852   0.01189   0.02207
    D8       -3.12022  -0.00030  -0.00012  -0.01360  -0.01403  -3.13425
    D9       -0.01650  -0.00026  -0.00324  -0.00679  -0.01035  -0.02685
   D10        3.13679  -0.00044  -0.00355  -0.01659  -0.02068   3.11611
   D11        3.11391   0.00029   0.00009   0.01534   0.01539   3.12930
   D12       -0.01598   0.00010  -0.00022   0.00554   0.00506  -0.01092
   D13        0.01216  -0.00012   0.00024  -0.00557  -0.00586   0.00630
   D14       -3.11923  -0.00025  -0.00065  -0.01175  -0.01280  -3.13203
   D15       -3.14083   0.00008   0.00068   0.00402   0.00422  -3.13660
   D16        0.01097  -0.00005  -0.00020  -0.00216  -0.00272   0.00825
   D17       -0.00301   0.00029   0.00232   0.01415   0.01631   0.01329
   D18        3.14120   0.00004  -0.00020   0.00357   0.00350  -3.13848
   D19        3.12860   0.00044   0.00326   0.02029   0.02315  -3.13143
   D20       -0.01037   0.00019   0.00075   0.00971   0.01034  -0.00002
   D21        3.12784   0.00024   0.00155   0.01043   0.01201   3.13985
   D22       -0.00598   0.00001   0.00016   0.00136   0.00163  -0.00435
   D23       -0.00345   0.00011   0.00070   0.00423   0.00503   0.00158
   D24       -3.13727  -0.00011  -0.00068  -0.00485  -0.00536   3.14056
   D25       -3.12288  -0.00062  -0.00436  -0.02805  -0.03213   3.12818
   D26        0.01507  -0.00041  -0.00295  -0.01915  -0.02203  -0.00697
   D27        0.01591  -0.00036  -0.00170  -0.01672  -0.01838  -0.00247
   D28       -3.12934  -0.00015  -0.00029  -0.00782  -0.00828  -3.13762
   D29       -0.00754   0.00021   0.00117   0.00976   0.01097   0.00343
   D30        3.13136   0.00034   0.00193   0.01494   0.01694  -3.13488
   D31        3.13768   0.00002  -0.00016   0.00097   0.00075   3.13843
   D32       -0.00660   0.00014   0.00060   0.00616   0.00672   0.00012
   D33       -0.00686   0.00010   0.00027   0.00483   0.00506  -0.00180
   D34        3.13392   0.00014   0.00070   0.00606   0.00677   3.14069
   D35        3.13742  -0.00003  -0.00049  -0.00038  -0.00089   3.13653
   D36       -0.00498   0.00001  -0.00006   0.00085   0.00081  -0.00417
   D37        0.01226  -0.00027  -0.00124  -0.01171  -0.01297  -0.00071
   D38       -3.13708  -0.00006   0.00007  -0.00279  -0.00256  -3.13964
   D39       -3.12852  -0.00030  -0.00167  -0.01293  -0.01468   3.13998
   D40        0.00532  -0.00010  -0.00036  -0.00401  -0.00427   0.00105
         Item               Value     Threshold  Converged?
 Maximum Force            0.021667     0.000450     NO 
 RMS     Force            0.004845     0.000300     NO 
 Maximum Displacement     0.506047     0.001800     NO 
 RMS     Displacement     0.072536     0.001200     NO 
 Predicted change in Energy=-4.522349D-03
 GradGradGradGradGradGradGradGradGradGradGradGradGradGradGradGradGradGrad

                          Input orientation:                          
 ---------------------------------------------------------------------
 Center     Atomic      Atomic             Coordinates (Angstroms)
 Number     Number       Type             X           Y           Z
 ---------------------------------------------------------------------
      1          7           0        0.977713    0.066774   -0.279503
      2          6           0        2.158734    0.106228   -0.052486
      3          6           0        3.627711    0.061807    0.097272
      4          6           0        4.182594    0.938612    1.080491
      5          6           0        5.644293    0.770278    1.062649
      6          6           0        6.418293   -0.063482    0.234141
      7          6           0        5.771484   -0.913359   -0.724847
      8          6           0        4.322834   -0.861939   -0.797321
      9          6           0        3.671924   -1.718718   -1.758180
     10          6           0        4.395532   -2.562230   -2.589056
     11          6           0        5.825628   -2.608607   -2.511286
     12          6           0        6.492341   -1.802570   -1.599887
     13          7           0        7.037273    2.263416    2.809516
     14          6           0        6.416652    1.593411    2.027297
     15          1           0        7.518627   -0.091853    0.293444
     16          1           0        2.574307   -1.683507   -1.822671
     17          1           0        3.871850   -3.199322   -3.316201
     18          1           0        6.388300   -3.280743   -3.173339
     19          1           0        7.589981   -1.828136   -1.532295
 ---------------------------------------------------------------------
                    Distance matrix (angstroms):
                    1          2          3          4          5
     1  N    0.000000
     2  C    1.203290   0.000000
     3  C    2.676654   1.477258   0.000000
     4  C    3.589004   2.464246   1.429476   0.000000
     5  C    4.906451   3.719356   2.345312   1.471468   0.000000
     6  C    5.466325   4.272563   2.796744   2.592075   1.407358
     7  C    4.913170   3.813605   2.494512   3.035393   2.458852
     8  C    3.510054   2.485045   1.461779   2.605346   2.805330
     9  C    3.554327   2.920541   2.571949   3.921764   4.247636
    10  C    4.891542   4.307913   3.832946   5.076102   5.099016
    11  C    5.969992   5.182869   4.332035   5.308784   4.921662
    12  C    5.970678   4.981777   3.816066   4.475873   3.798399
    13  N    7.147416   6.053483   4.881442   3.590798   2.687266
    14  C    6.101968   4.966596   3.721425   2.513209   1.484800
    15  H    6.567876   5.374695   3.898888   3.579165   2.201834
    16  H    2.827360   2.551354   2.800350   4.229710   4.875546
    17  H    5.316479   4.951087   4.727194   6.045656   6.170381
    18  H    6.989608   6.253041   5.430506   6.384604   5.908292
    19  H    6.991585   5.952314   4.682623   5.108017   4.155863
                    6          7          8          9         10
     6  C    0.000000
     7  C    1.435378   0.000000
     8  C    2.468278   1.451373   0.000000
     9  C    3.775141   2.474779   1.442568   0.000000
    10  C    4.278521   2.843817   2.471152   1.387615   0.000000
    11  C    3.790288   2.463364   2.871745   2.448982   1.432960
    12  C    2.528551   1.440842   2.497131   2.826100   2.439703
    13  N    3.525642   4.917911   5.490474   6.931581   7.707804
    14  C    2.441456   3.778152   4.288506   5.730058   6.531845
    15  H    1.102296   2.182727   3.463509   4.653275   4.915820
    16  H    4.650934   3.467029   2.187159   1.100074   2.162489
    17  H    5.377991   3.943266   3.465761   2.158608   1.099485
    18  H    4.686426   3.461226   3.970167   3.438211   2.197447
    19  H    2.758107   2.189913   3.485395   3.926087   3.443856
                   11         12         13         14         15
    11  C    0.000000
    12  C    1.387389   0.000000
    13  N    7.315438   6.022627   0.000000
    14  C    6.213292   4.969395   1.202474   0.000000
    15  H    4.131199   2.750367   3.479887   2.657200   0.000000
    16  H    3.449796   3.926169   7.546750   6.350123   5.608708
    17  H    2.194101   3.429814   8.796921   7.615726   5.998740
    18  H    1.098490   2.161382   8.182507   7.127749   4.844093
    19  H    2.163446   1.100016   5.991462   5.074878   2.520534
                   16         17         18         19
    16  H    0.000000
    17  H    2.492377   0.000000
    18  H    4.349944   2.521817   0.000000
    19  H    5.026154   4.345914   2.499425   0.000000
 Stoichiometry    C12H5N2(1-)
 Framework group  C1[X(C12H5N2)]
 Deg. of freedom    51
 Full point group                 C1      NOp   1
 Largest Abelian subgroup         C1      NOp   1
 Largest concise Abelian subgroup C1      NOp   1
                         Standard orientation:                         
 ---------------------------------------------------------------------
 Center     Atomic      Atomic             Coordinates (Angstroms)
 Number     Number       Type             X           Y           Z
 ---------------------------------------------------------------------
      1          7           0       -1.012289    3.723907   -0.038674
      2          6           0       -0.427598    2.672777   -0.004502
      3          6           0        0.148017    1.312417    0.014975
      4          6           0        1.575520    1.237563    0.009117
      5          6           0        1.953421   -0.184543    0.004228
      6          6           0        1.112267   -1.312619   -0.019444
      7          6           0       -0.312547   -1.139089   -0.009302
      8          6           0       -0.822638    0.219431    0.017462
      9          6           0       -2.254479    0.394454    0.031647
     10          6           0       -3.120498   -0.689651    0.017374
     11          6           0       -2.609825   -2.028287   -0.007964
     12          6           0       -1.239119   -2.242432   -0.020474
     13          7           0        4.587250   -0.717767    0.008746
     14          6           0        3.408048   -0.482337    0.007493
     15          1           0        1.509390   -2.340587   -0.044604
     16          1           0       -2.650038    1.420819    0.048086
     17          1           0       -4.207544   -0.524806    0.022367
     18          1           0       -3.304608   -2.879082   -0.018234
     19          1           0       -0.835336   -3.265437   -0.041782
 ---------------------------------------------------------------------
 Rotational constants (GHZ):      0.9909363      0.5827631      0.3669919
 Standard basis: STO-3G (5D, 7F)
 There are    75 symmetry adapted cartesian basis functions of A   symmetry.
 There are    75 symmetry adapted basis functions of A   symmetry.
    75 basis functions,   225 primitive gaussians,    75 cartesian basis functions
    46 alpha electrons       46 beta electrons
       nuclear repulsion energy       695.2349305235 Hartrees.
 NAtoms=   19 NActive=   19 NUniq=   19 SFac= 1.00D+00 NAtFMM=   60 NAOKFM=F Big=F
 Integral buffers will be    131072 words long.
 Raffenetti 2 integral format.
 Two-electron integral symmetry is turned on.
 One-electron integrals computed using PRISM.
 NBasis=    75 RedAO= T EigKep=  1.77D-01  NBF=    75
 NBsUse=    75 1.00D-06 EigRej= -1.00D+00 NBFU=    75
 Initial guess from the checkpoint file:  "/tmp/bnp.472665.sequoia/Gau-29925.chk"
 B after Tr=     0.000000    0.000000    0.000000
         Rot=    0.999524   -0.000025   -0.000023   -0.030848 Ang=  -3.54 deg.
 ExpMin= 1.69D-01 ExpMax= 9.91D+01 ExpMxC= 9.91D+01 IAcc=1 IRadAn=         1 AccDes= 0.00D+00
 Harris functional with IExCor=  402 and IRadAn=       1 diagonalized for initial guess.
 HarFok:  IExCor=  402 AccDes= 0.00D+00 IRadAn=         1 IDoV= 1 UseB2=F ITyADJ=14
 ICtDFT=  3500011 ScaDFX=  1.000000  1.000000  1.000000  1.000000
 FoFCou: FMM=F IPFlag=           0 FMFlag=      100000 FMFlg1=           0
         NFxFlg=           0 DoJE=T BraDBF=F KetDBF=T FulRan=T
         wScrn=  0.000000 ICntrl=     500 IOpCl=  0 I1Cent=   200000004 NGrid=           0
         NMat0=    1 NMatS0=      1 NMatT0=    0 NMatD0=    1 NMtDS0=    0 NMtDT0=    0
 Petite list used in FoFCou.
 Keep R1 ints in memory in canonical form, NReq=4993994.
 Requested convergence on RMS density matrix=1.00D-08 within 128 cycles.
 Requested convergence on MAX density matrix=1.00D-06.
 Requested convergence on             energy=1.00D-06.
 No special actions if energy rises.
 Integral accuracy reduced to 1.0D-05 until final iterations.
 Initial convergence to 1.0D-05 achieved.  Increase integral accuracy.
 SCF Done:  E(RB3LYP) =  -562.527096721     A.U. after   18 cycles
            NFock= 18  Conv=0.80D-08     -V/T= 2.0140
 Calling FoFJK, ICntrl=      2127 FMM=F ISym2X=0 I1Cent= 0 IOpClX= 0 NMat=1 NMatS=1 NMatT=0.
 ***** Axes restored to original set *****
 -------------------------------------------------------------------
 Center     Atomic                   Forces (Hartrees/Bohr)
 Number     Number              X              Y              Z
 -------------------------------------------------------------------
      1        7           0.005523026    0.003419921    0.005403403
      2        6          -0.005833526   -0.008033123   -0.010569637
      3        6          -0.003662279    0.000858560    0.000178447
      4        6          -0.002593098    0.001683235    0.001832108
      5        6           0.011029124   -0.000927373   -0.000379553
      6        6          -0.001264385    0.000686824    0.000417893
      7        6          -0.002206961   -0.000736336   -0.000313868
      8        6           0.000962988    0.000862759    0.000880910
      9        6          -0.001515524    0.000539453    0.000251683
     10        6           0.000257521   -0.000377320   -0.000481306
     11        6           0.000078225    0.000063707    0.000114505
     12        6          -0.000025108    0.001038257    0.000754507
     13        7          -0.003817424   -0.003832714   -0.004540855
     14        6           0.004095879    0.003590134    0.004801642
     15        1          -0.001270578    0.000849941    0.000768804
     16        1           0.000979678   -0.000157964    0.000092868
     17        1           0.000811324    0.000279519    0.000556565
     18        1          -0.000805965    0.000305118    0.000248471
     19        1          -0.000742915   -0.000112595   -0.000016588
 -------------------------------------------------------------------
 Cartesian Forces:  Max     0.011029124 RMS     0.003121296

 GradGradGradGradGradGradGradGradGradGradGradGradGradGradGradGradGradGrad
 Berny optimization.
 Using GEDIIS/GDIIS optimizer.
 FormGI is forming the generalized inverse of G from B-inverse, IUseBI=4.
 Internal  Forces:  Max     0.012028296 RMS     0.002109631
 Search for a local minimum.
 Step number   3 out of a maximum of  102
 All quantities printed in internal units (Hartrees-Bohrs-Radians)
 Mixed Optimization -- RFO/linear search
 Update second derivatives using D2CorX and points    1    2    3
 DE= -3.54D-03 DEPred=-4.52D-03 R= 7.83D-01
 TightC=F SS=  1.41D+00  RLast= 2.85D-01 DXNew= 8.4853D-01 8.5629D-01
 Trust test= 7.83D-01 RLast= 2.85D-01 DXMaxT set to 8.49D-01
 ITU=  1  1  0
 Use linear search instead of GDIIS.
     Eigenvalues ---    0.01656   0.01828   0.01895   0.01943   0.01952
     Eigenvalues ---    0.02018   0.02035   0.02054   0.02082   0.02099
     Eigenvalues ---    0.02153   0.02165   0.02177   0.02181   0.02206
     Eigenvalues ---    0.02437   0.04874   0.04939   0.15361   0.16000
     Eigenvalues ---    0.16000   0.16001   0.16111   0.18806   0.22003
     Eigenvalues ---    0.22548   0.23567   0.24522   0.24999   0.25006
     Eigenvalues ---    0.25872   0.34815   0.34900   0.34966   0.35098
     Eigenvalues ---    0.35176   0.37467   0.39174   0.40662   0.40814
     Eigenvalues ---    0.41031   0.42560   0.43994   0.44248   0.45426
     Eigenvalues ---    0.45617   0.46253   0.46992   0.49898   1.27968
     Eigenvalues ---    1.39951
 RFO step:  Lambda=-4.85748323D-03 EMin= 1.65551035D-02
 Quartic linear search produced a step of -0.19845.
 Iteration  1 RMS(Cart)=  0.03161000 RMS(Int)=  0.02170880
 Iteration  2 RMS(Cart)=  0.04337759 RMS(Int)=  0.00451422
 Iteration  3 RMS(Cart)=  0.00470985 RMS(Int)=  0.00003892
 Iteration  4 RMS(Cart)=  0.00003512 RMS(Int)=  0.00003426
 Iteration  5 RMS(Cart)=  0.00000000 RMS(Int)=  0.00003426
 Variable       Old X    -DE/DX   Delta X   Delta X   Delta X     New X
                                 (Linear)    (Quad)   (Total)
    R1        2.27389  -0.00655  -0.00280   0.00554   0.00274   2.27663
    R2        2.79161   0.00069  -0.00610   0.02237   0.01628   2.80789
    R3        2.70132   0.00520  -0.00538   0.02829   0.02293   2.72425
    R4        2.76236  -0.00260  -0.00299   0.00522   0.00224   2.76460
    R5        2.78067   0.00720  -0.01252   0.05616   0.04365   2.82432
    R6        2.65952  -0.00391   0.00249  -0.01560  -0.01312   2.64640
    R7        2.80587   0.00018  -0.00671   0.02342   0.01671   2.82258
    R8        2.71247   0.00055  -0.00231   0.00844   0.00612   2.71859
    R9        2.08304  -0.00125  -0.00034  -0.00183  -0.00217   2.08087
   R10        2.74270  -0.00104  -0.00085   0.00011  -0.00075   2.74194
   R11        2.72280  -0.00147  -0.00311   0.00779   0.00468   2.72748
   R12        2.72606  -0.00032  -0.00215   0.00680   0.00465   2.73071
   R13        2.62221  -0.00020   0.00306  -0.01075  -0.00769   2.61452
   R14        2.07884  -0.00099  -0.00103   0.00118   0.00015   2.07899
   R15        2.70790  -0.00117  -0.00457   0.01383   0.00927   2.71717
   R16        2.07773  -0.00092  -0.00094   0.00104   0.00010   2.07783
   R17        2.62179  -0.00051   0.00256  -0.00978  -0.00722   2.61457
   R18        2.07585  -0.00075  -0.00084   0.00110   0.00026   2.07610
   R19        2.07873  -0.00074  -0.00105   0.00185   0.00079   2.07952
   R20        2.27235  -0.00706  -0.00281   0.00525   0.00244   2.27479
    A1        2.02337   0.00467   0.00171   0.00915   0.01088   2.03425
    A2        2.01510  -0.00251   0.01178  -0.04879  -0.03699   1.97811
    A3        2.24460  -0.00215  -0.01348   0.03961   0.02615   2.27075
    A4        1.88293   0.00116   0.02173  -0.06735  -0.04561   1.83731
    A5        2.24110  -0.00245  -0.01418   0.04097   0.02680   2.26790
    A6        2.03245   0.00135   0.00514  -0.01350  -0.00834   2.02411
    A7        2.00955   0.00111   0.00904  -0.02752  -0.01846   1.99109
    A8        2.09008   0.00076   0.00142  -0.00356  -0.00216   2.08792
    A9        2.13242  -0.00159  -0.00331   0.00423   0.00093   2.13335
   A10        2.06068   0.00084   0.00188  -0.00067   0.00123   2.06191
   A11        2.05122   0.00192   0.00374  -0.00848  -0.00476   2.04647
   A12        2.14803  -0.00170  -0.00449   0.01140   0.00694   2.15497
   A13        2.08392  -0.00022   0.00074  -0.00291  -0.00218   2.08175
   A14        2.05609   0.00077   0.00082  -0.00143  -0.00062   2.05547
   A15        2.17534  -0.00120  -0.00061  -0.00090  -0.00149   2.17385
   A16        2.05171   0.00043  -0.00020   0.00230   0.00210   2.05381
   A17        2.12301  -0.00047  -0.00009  -0.00138  -0.00147   2.12154
   A18        2.06037   0.00030   0.00500  -0.01567  -0.01066   2.04970
   A19        2.09979   0.00017  -0.00491   0.01704   0.01213   2.11192
   A20        2.10320  -0.00013  -0.00029   0.00079   0.00051   2.10371
   A21        2.09424   0.00051  -0.00107   0.00603   0.00496   2.09920
   A22        2.08574  -0.00039   0.00136  -0.00683  -0.00547   2.08027
   A23        2.09029   0.00019   0.00014   0.00016   0.00029   2.09058
   A24        2.09242  -0.00061   0.00120  -0.00700  -0.00581   2.08662
   A25        2.10047   0.00042  -0.00133   0.00685   0.00552   2.10599
   A26        2.11423   0.00019  -0.00032   0.00103   0.00071   2.11494
   A27        2.06718  -0.00002   0.00416  -0.01365  -0.00949   2.05769
   A28        2.10177  -0.00017  -0.00385   0.01262   0.00878   2.11055
   A29        3.03460   0.01203   0.03393   0.36682   0.40075   3.43535
   A30        3.14644   0.00046   0.00412  -0.00729  -0.00317   3.14327
   A31        3.12424   0.00161   0.00567   0.04657   0.05224   3.17648
   A32        3.14006  -0.00005   0.00037  -0.00178  -0.00141   3.13865
    D1       -3.12277  -0.00025  -0.00682   0.00960   0.00258  -3.12019
    D2        0.00108   0.00015  -0.00028   0.00654   0.00624   0.00732
    D3        3.10605   0.00034   0.00955  -0.01521  -0.00578   3.10028
    D4       -0.02457   0.00024   0.00681  -0.01138  -0.00466  -0.02923
    D5       -0.01786  -0.00012   0.00297  -0.01265  -0.00974  -0.02760
    D6        3.13470  -0.00022   0.00023  -0.00882  -0.00862   3.12608
    D7        0.02207  -0.00008  -0.00236   0.00388   0.00153   0.02359
    D8       -3.13425   0.00024   0.00278  -0.00123   0.00163  -3.13262
    D9       -0.02685  -0.00003   0.00205  -0.00704  -0.00492  -0.03177
   D10        3.11611   0.00012   0.00410  -0.00859  -0.00444   3.11167
   D11        3.12930  -0.00035  -0.00305  -0.00208  -0.00509   3.12421
   D12       -0.01092  -0.00020  -0.00100  -0.00363  -0.00460  -0.01552
   D13        0.00630   0.00012   0.00116  -0.00055   0.00064   0.00694
   D14       -3.13203   0.00013   0.00254  -0.00422  -0.00170  -3.13373
   D15       -3.13660  -0.00002  -0.00084   0.00094   0.00017  -3.13644
   D16        0.00825  -0.00001   0.00054  -0.00273  -0.00216   0.00608
   D17        0.01329   0.00002  -0.00324   0.00849   0.00521   0.01851
   D18       -3.13848   0.00010  -0.00069   0.00491   0.00415  -3.13433
   D19       -3.13143   0.00001  -0.00459   0.01204   0.00746  -3.12397
[...]
 ! D14   D(5,6,7,12)          -176.6878         -DE/DX =    0.0                 !
 ! D15   D(15,6,7,8)          -179.0            -DE/DX =    0.0                 !
 ! D16   D(15,6,7,12)            1.9837         -DE/DX =    0.0                 !
 ! D17   D(6,7,8,3)              3.3815         -DE/DX =    0.0                 !
 ! D18   D(6,7,8,9)           -178.1469         -DE/DX =    0.0                 !
 ! D19   D(12,7,8,3)          -177.5676         -DE/DX =    0.0                 !
 ! D20   D(12,7,8,9)             0.904          -DE/DX =    0.0                 !
 ! D21   D(6,7,12,11)          178.5385         -DE/DX =    0.0                 !
 ! D22   D(6,7,12,19)           -1.068          -DE/DX =    0.0                 !
 ! D23   D(8,7,12,11)           -0.4623         -DE/DX =    0.0                 !
 ! D24   D(8,7,12,19)          179.9312         -DE/DX =    0.0                 !
 ! D25   D(3,8,9,10)           177.403          -DE/DX =    0.0                 !
 ! D26   D(3,8,9,16)            -1.931          -DE/DX =    0.0                 !
 ! D27   D(7,8,9,10)            -0.961          -DE/DX =    0.0                 !
 ! D28   D(7,8,9,16)           179.705          -DE/DX =    0.0                 !
 ! D29   D(8,9,10,11)            0.5484         -DE/DX =    0.0                 !
 ! D30   D(8,9,10,17)         -179.279          -DE/DX =    0.0                 !
 ! D31   D(16,9,10,11)         179.8682         -DE/DX =    0.0                 !
 ! D32   D(16,9,10,17)           0.0408         -DE/DX =    0.0                 !
 ! D33   D(9,10,11,12)          -0.0636         -DE/DX =    0.0                 !
 ! D34   D(9,10,11,18)         179.85           -DE/DX =    0.0                 !
 ! D35   D(17,10,11,12)        179.7653         -DE/DX =    0.0                 !
 ! D36   D(17,10,11,18)         -0.3211         -DE/DX =    0.0                 !
 ! D37   D(10,11,12,7)           0.0267         -DE/DX =    0.0                 !
 ! D38   D(10,11,12,19)        179.626          -DE/DX =    0.0                 !
 ! D39   D(18,11,12,7)        -179.8861         -DE/DX =    0.0                 !
 ! D40   D(18,11,12,19)         -0.2869         -DE/DX =    0.0                 !
 --------------------------------------------------------------------------------
 GradGradGradGradGradGradGradGradGradGradGradGradGradGradGradGradGradGrad

                          Input orientation:                          
 ---------------------------------------------------------------------
 Center     Atomic      Atomic             Coordinates (Angstroms)
 Number     Number       Type             X           Y           Z
 ---------------------------------------------------------------------
      1          7           0        0.968305    0.219390   -0.259705
      2          6           0        2.158995    0.147027   -0.128443
      3          6           0        3.621790    0.075164    0.060078
      4          6           0        4.179460    0.946816    1.049455
      5          6           0        5.649371    0.765186    1.060770
      6          6           0        6.419769   -0.019826    0.189264
      7          6           0        5.771604   -0.885430   -0.755920
      8          6           0        4.323679   -0.870841   -0.802021
      9          6           0        3.673607   -1.769682   -1.722354
     10          6           0        4.402606   -2.609108   -2.553933
     11          6           0        5.833062   -2.611186   -2.509369
     12          6           0        6.497409   -1.767866   -1.630258
     13          7           0        7.009679    2.144890    2.914525
     14          6           0        6.405028    1.525230    2.084312
     15          1           0        7.519813   -0.009940    0.221892
     16          1           0        2.575448   -1.768486   -1.760089
     17          1           0        3.885041   -3.277037   -3.255523
     18          1           0        6.395990   -3.281988   -3.170976
     19          1           0        7.595413   -1.766255   -1.583964
 ---------------------------------------------------------------------
                    Distance matrix (angstroms):
                    1          2          3          4          5
     1  N    0.000000
     2  C    1.200086   0.000000
     3  C    2.676573   1.476643   0.000000
     4  C    3.543242   2.471718   1.431656   0.000000
     5  C    4.894275   3.738861   2.364022   1.481133   0.000000
     6  C    5.475149   4.275859   2.802570   2.587142   1.403310
     7  C    4.953638   3.809283   2.492046   3.025132   2.457607
     8  C    3.569488   2.485080   1.459722   2.598583   2.811411
     9  C    3.662568   2.916912   2.565775   3.913843   4.251467
    10  C    5.005827   4.302682   3.827277   5.067425   5.099643
    11  C    6.061271   5.174487   4.325305   5.297075   4.917268
    12  C    6.033125   4.974344   3.810929   4.463546   3.791722
    13  N    7.090943   6.064672   4.889726   3.594997   2.681497
    14  C    6.062803   4.982422   3.734518   2.521635   1.481999
    15  H    6.573187   5.374547   3.902308   3.571862   2.191595
    16  H    2.964070   2.550469   2.794080   4.223654   4.881162
    17  H    5.450438   4.947937   4.722263   6.038249   6.171127
    18  H    7.084836   6.242377   5.422763   6.372426   5.902942
    19  H    7.043792   5.944226   4.677967   5.095525   4.146069
                    6          7          8          9         10
     6  C    0.000000
     7  C    1.436231   0.000000
     8  C    2.469911   1.448732   0.000000
     9  C    3.775934   2.473355   1.441361   0.000000
    10  C    4.277670   2.842196   2.469211   1.388381   0.000000
    11  C    3.787082   2.461016   2.867417   2.447605   1.431152
    12  C    2.524348   1.438734   2.493137   2.825304   2.439070
    13  N    3.530019   4.918112   5.488345   6.924874   7.700737
    14  C    2.445122   3.778812   4.289998   5.727809   6.528075
    15  H    1.100573   2.186054   3.464797   4.655113   4.917099
    16  H    4.651515   3.464615   2.186315   1.098808   2.162254
    17  H    5.375949   3.940422   3.464370   2.160424   1.098285
    18  H    4.683319   3.459168   3.964852   3.434667   2.192507
    19  H    2.752543   2.188102   3.481011   3.924248   3.441694
                   11         12         13         14         15
    11  C    0.000000
    12  C    1.387581   0.000000
    13  N    7.309125   6.018897   0.000000
    14  C    6.207978   4.964982   1.199514   0.000000
    15  H    4.131755   2.750650   3.486230   2.658590   0.000000
    16  H    3.447262   3.924109   7.538496   6.347729   5.609588
    17  H    2.189723   3.426886   8.788068   7.610909   5.998159
    18  H    1.097536   2.162559   8.176853   7.122322   4.845702
    19  H    2.162444   1.098980   5.989703   5.070221   2.520213
                   16         17         18         19
    16  H    0.000000
    17  H    2.495413   0.000000
    18  H    4.344862   2.512376   0.000000
    19  H    5.023054   4.340902   2.500933   0.000000
 Stoichiometry    C12H5N2(1-)
 Framework group  C1[X(C12H5N2)]
 Deg. of freedom    51
 Full point group                 C1      NOp   1
 Largest Abelian subgroup         C1      NOp   1
 Largest concise Abelian subgroup C1      NOp   1
                         Standard orientation:                         
 ---------------------------------------------------------------------
 Center     Atomic      Atomic             Coordinates (Angstroms)
 Number     Number       Type             X           Y           Z
 ---------------------------------------------------------------------
      1          7           0       -0.850847    3.792656   -0.075697
      2          6           0       -0.416606    2.674278   -0.046175
      3          6           0        0.146895    1.310040   -0.003773
      4          6           0        1.575030    1.210724   -0.018115
      5          6           0        1.946294   -0.223123   -0.016960
      6          6           0        1.086451   -1.328173   -0.110831
      7          6           0       -0.335782   -1.134114   -0.062318
      8          6           0       -0.828756    0.224872    0.032333
      9          6           0       -2.254623    0.415572    0.122094
     10          6           0       -3.133361   -0.659082    0.098849
     11          6           0       -2.639347   -1.998301   -0.004300
     12          6           0       -1.272791   -2.225691   -0.083032
     13          7           0        4.566434   -0.778969    0.110811
     14          6           0        3.393381   -0.534835    0.054432
     15          1           0        1.472341   -2.355045   -0.199625
     16          1           0       -2.636634    1.442950    0.199177
     17          1           0       -4.216696   -0.488032    0.156783
     18          1           0       -3.345842   -2.838082   -0.019036
     19          1           0       -0.882989   -3.250601   -0.156325
 ---------------------------------------------------------------------
 Rotational constants (GHZ):      0.9773943      0.5853692      0.3666537

 **********************************************************************

            Population analysis using the SCF density.

 **********************************************************************

 Orbital symmetries:
       Occupied  (A) (A) (A) (A) (A) (A) (A) (A) (A) (A) (A) (A)
                 (A) (A) (A) (A) (A) (A) (A) (A) (A) (A) (A) (A)
                 (A) (A) (A) (A) (A) (A) (A) (A) (A) (A) (A) (A)
                 (A) (A) (A) (A) (A) (A) (A) (A) (A) (A)
       Virtual   (A) (A) (A) (A) (A) (A) (A) (A) (A) (A) (A) (A)
                 (A) (A) (A) (A) (A) (A) (A) (A) (A) (A) (A) (A)
                 (A) (A) (A) (A) (A)
 The electronic state is 1-A.
 Alpha  occ. eigenvalues --  -13.95449 -13.93561  -9.87678  -9.87650  -9.87499
 Alpha  occ. eigenvalues --   -9.87188  -9.87044  -9.86912  -9.85995  -9.85911
 Alpha  occ. eigenvalues --   -9.85689  -9.84471  -9.83372  -9.69562  -0.69509
 Alpha  occ. eigenvalues --   -0.68332  -0.67332  -0.61898  -0.58281  -0.54736
 Alpha  occ. eigenvalues --   -0.52159  -0.44560  -0.42036  -0.40900  -0.35442
 Alpha  occ. eigenvalues --   -0.33004  -0.29339  -0.27609  -0.24733  -0.23999
 Alpha  occ. eigenvalues --   -0.23226  -0.19797  -0.19248  -0.17159  -0.15372
 Alpha  occ. eigenvalues --   -0.15005  -0.13291  -0.12355  -0.11148  -0.10199
 Alpha  occ. eigenvalues --   -0.09928  -0.08173  -0.07433  -0.02344   0.00769
 Alpha  occ. eigenvalues --    0.09403
 Alpha virt. eigenvalues --    0.17195   0.22261   0.25518   0.28431   0.29225
 Alpha virt. eigenvalues --    0.31017   0.36207   0.37089   0.45429   0.46161
 Alpha virt. eigenvalues --    0.47686   0.48617   0.52925   0.54652   0.56344
 Alpha virt. eigenvalues --    0.56844   0.58712   0.61386   0.66372   0.68631
 Alpha virt. eigenvalues --    0.71240   0.74884   0.78463   0.80943   0.84403
 Alpha virt. eigenvalues --    0.91059   0.93698   1.08523   1.10293
          Condensed to atoms (all electrons):
               1          2          3          4          5          6
     1  N    6.629375   0.659201  -0.010826  -0.000061  -0.000002   0.000000
     2  C    0.659201   4.969032   0.403963  -0.034390   0.001455   0.000006
     3  C   -0.010826   0.403963   4.890263   0.447006  -0.028984  -0.012285
     4  C   -0.000061  -0.034390   0.447006   5.446868   0.392377  -0.017639
     5  C   -0.000002   0.001455  -0.028984   0.392377   4.861908   0.502207
     6  C    0.000000   0.000006  -0.012285  -0.017639   0.502207   4.865783
     7  C   -0.000001   0.000800  -0.029462  -0.005667  -0.029604   0.468792
     8  C    0.000074  -0.037127   0.443864  -0.017832  -0.012287  -0.028618
     9  C   -0.000218  -0.004882  -0.024432   0.000528   0.000049   0.000878
    10  C    0.000001   0.000018   0.000665  -0.000006   0.000000   0.000030
    11  C    0.000000   0.000000   0.000027   0.000000  -0.000007   0.000760
    12  C    0.000000  -0.000007   0.000756   0.000005   0.000723  -0.027763
    13  N    0.000000   0.000000  -0.000002   0.000026  -0.010509  -0.000044
    14  C    0.000000  -0.000004   0.001365  -0.032161   0.399051  -0.039043
    15  H    0.000000   0.000001   0.000085   0.000946  -0.023326   0.381353
    16  H   -0.000130   0.002025  -0.003227   0.000016   0.000000  -0.000018
    17  H    0.000000   0.000000  -0.000014   0.000000   0.000000   0.000001
    18  H    0.000000   0.000000   0.000000   0.000000   0.000000  -0.000016
    19  H    0.000000   0.000000  -0.000016   0.000000   0.000015  -0.003301
               7          8          9         10         11         12
     1  N   -0.000001   0.000074  -0.000218   0.000001   0.000000   0.000000
     2  C    0.000800  -0.037127  -0.004882   0.000018   0.000000  -0.000007
     3  C   -0.029462   0.443864  -0.024432   0.000665   0.000027   0.000756
     4  C   -0.005667  -0.017832   0.000528  -0.000006   0.000000   0.000005
     5  C   -0.029604  -0.012287   0.000049   0.000000  -0.000007   0.000723
     6  C    0.468792  -0.028618   0.000878   0.000030   0.000760  -0.027763
     7  C    4.803775   0.461285  -0.027722  -0.009648  -0.028052   0.469254
     8  C    0.461285   4.820655   0.464798  -0.026650  -0.009062  -0.026138
     9  C   -0.027722   0.464798   4.835705   0.525946  -0.029048  -0.010294
    10  C   -0.009648  -0.026650   0.525946   4.826699   0.473415  -0.029425
    11  C   -0.028052  -0.009062  -0.029048   0.473415   4.831907   0.526945
    12  C    0.469254  -0.026138  -0.010294  -0.029425   0.526945   4.828661
    13  N   -0.000001   0.000000   0.000000   0.000000   0.000000   0.000000
    14  C    0.000964   0.000001   0.000000   0.000000   0.000000  -0.000007
    15  H   -0.026276   0.001234  -0.000016  -0.000001   0.000013  -0.003368
    16  H    0.001277  -0.025522   0.385940  -0.025723   0.001379   0.000026
    17  H    0.000030   0.001350  -0.025773   0.386981  -0.025507   0.001348
    18  H    0.001362   0.000027   0.001322  -0.025144   0.387641  -0.025761
    19  H   -0.025140   0.001219   0.000025   0.001419  -0.025902   0.385623
              13         14         15         16         17         18
     1  N    0.000000   0.000000   0.000000  -0.000130   0.000000   0.000000
     2  C    0.000000  -0.000004   0.000001   0.002025   0.000000   0.000000
     3  C   -0.000002   0.001365   0.000085  -0.003227  -0.000014   0.000000
     4  C    0.000026  -0.032161   0.000946   0.000016   0.000000   0.000000
     5  C   -0.010509   0.399051  -0.023326   0.000000   0.000000   0.000000
     6  C   -0.000044  -0.039043   0.381353  -0.000018   0.000001  -0.000016
     7  C   -0.000001   0.000964  -0.026276   0.001277   0.000030   0.001362
     8  C    0.000000   0.000001   0.001234  -0.025522   0.001350   0.000027
     9  C    0.000000   0.000000  -0.000016   0.385940  -0.025773   0.001322
    10  C    0.000000   0.000000  -0.000001  -0.025723   0.386981  -0.025144
    11  C    0.000000   0.000000   0.000013   0.001379  -0.025507   0.387641
    12  C    0.000000  -0.000007  -0.003368   0.000026   0.001348  -0.025761
    13  N    6.613201   0.661079   0.000048   0.000000   0.000000   0.000000
    14  C    0.661079   4.966762  -0.003578   0.000000   0.000000   0.000000
    15  H    0.000048  -0.003578   0.619527   0.000000   0.000000  -0.000001
    16  H    0.000000   0.000000   0.000000   0.597312  -0.003806  -0.000033
    17  H    0.000000   0.000000   0.000000  -0.003806   0.615551  -0.003278
    18  H    0.000000   0.000000  -0.000001  -0.000033  -0.003278   0.616793
    19  H    0.000000  -0.000001   0.001024   0.000002  -0.000034  -0.003764
              19
     1  N    0.000000
     2  C    0.000000
     3  C   -0.000016
     4  C    0.000000
     5  C    0.000015
     6  C   -0.003301
     7  C   -0.025140
     8  C    0.001219
     9  C    0.000025
    10  C    0.001419
    11  C   -0.025902
    12  C    0.385623
    13  N    0.000000
    14  C   -0.000001
    15  H    0.001024
    16  H    0.000002
    17  H   -0.000034
    18  H   -0.003764
    19  H    0.613304
 Mulliken charges:
               1
     1  N   -0.277411
     2  C    0.039909
     3  C   -0.078745
     4  C   -0.180017
     5  C   -0.053065
     6  C   -0.091082
     7  C   -0.025963
     8  C   -0.011271
     9  C   -0.092808
    10  C   -0.098578
    11  C   -0.104509
    12  C   -0.090578
    13  N   -0.263796
    14  C    0.045571
    15  H    0.052333
    16  H    0.070481
    17  H    0.053151
    18  H    0.050852
    19  H    0.055526
 Sum of Mulliken charges =  -1.00000
 Mulliken charges with hydrogens summed into heavy atoms:
               1
     1  N   -0.277411
     2  C    0.039909
     3  C   -0.078745
     4  C   -0.180017
     5  C   -0.053065
     6  C   -0.038748
     7  C   -0.025963
     8  C   -0.011271
     9  C   -0.022327
    10  C   -0.045427
    11  C   -0.053657
    12  C   -0.035052
    13  N   -0.263796
    14  C    0.045571
 Electronic spatial extent (au):  <R**2>=           2793.0031
 Charge=             -1.0000 electrons
 Dipole moment (field-independent basis, Debye):
    X=             -5.8814    Y=             -5.7086    Z=             -0.0149  Tot=              8.1963
 Quadrupole moment (field-independent basis, Debye-Ang):
   XX=           -111.9244   YY=           -100.0526   ZZ=            -74.1996
   XY=              3.1999   XZ=             -0.9700   YZ=              0.9384
 Traceless Quadrupole moment (field-independent basis, Debye-Ang):
   XX=            -16.5322   YY=             -4.6604   ZZ=             21.1926
   XY=              3.1999   XZ=             -0.9700   YZ=              0.9384
 Octapole moment (field-independent basis, Debye-Ang**2):
  XXX=           -155.7662  YYY=           -101.7490  ZZZ=              0.1045  XYY=             12.5108
  XXY=             16.1127  XXZ=             -3.4066  XZZ=              4.6859  YZZ=              3.4591
  YYZ=              1.5826  XYZ=              0.3184
 Hexadecapole moment (field-independent basis, Debye-Ang**3):
 XXXX=          -2929.4273 YYYY=          -1703.1636 ZZZZ=            -61.2202 XXXY=             99.7262
 XXXZ=            -21.6821 YYYX=             68.0094 YYYZ=             10.5987 ZZZX=              1.6805
 ZZZY=             -0.9884 XXYY=           -636.7492 XXZZ=           -376.9107 YYZZ=           -233.2066
 XXYZ=              5.2895 YYXZ=             -2.6332 ZZXY=             -7.4207
 N-N= 6.949770992211D+02 E-N=-2.712429902079D+03  KE= 5.547632650012D+02
 1\1\GINC-N042\FOpt\RB3LYP\STO-3G\C12H5N2(1-)\R2532\15-Jun-2021\0\\#N B
 3LYP/STO-3G OPT\\1Naph\\-1,1\N,0.9683052854,0.2193903582,-0.2597054036
 \C,2.1589946296,0.1470267615,-0.1284432976\C,3.6217901654,0.0751640437
 ,0.0600780683\C,4.1794604446,0.9468160193,1.0494547788\C,5.6493713022,
 0.7651858047,1.0607701234\C,6.4197686981,-0.0198259126,0.1892639329\C,
 5.7716039722,-0.8854296713,-0.7559196028\C,4.3236794273,-0.8708407504,
 -0.8020205165\C,3.6736074858,-1.7696815401,-1.7223535914\C,4.402606082
 6,-2.609107875,-2.5539334862\C,5.8330621214,-2.6111863029,-2.509369013
 2\C,6.4974091954,-1.7678657091,-1.6302582649\N,7.0096787887,2.14488977
 86,2.9145245247\C,6.4050275013,1.5252302713,2.0843118166\H,7.519813324
 9,-0.0099398486,0.2218919348\H,2.5754481416,-1.7684857338,-1.760089196
 6\H,3.885041277,-3.277036806,-3.2555232633\H,6.3959895978,-3.281987693
 5,-3.1709756965\H,7.5954125588,-1.7662551941,-1.583963847\\Version=ES6
 4L-G09RevD.01\State=1-A\HF=-562.5281809\RMSD=5.547e-09\RMSF=2.998e-06\
 Dipole=1.3647746,-2.0828633,-2.0487776\Quadrupole=-5.504311,4.4955269,
 1.0087841,-0.9653397,-5.2948803,-12.554105\PG=C01 [X(C12H5N2)]\\@


 There was a great rattling of the words for the fewness of ideas.
                   -- Charles Baxter in Gryphon
 Job cpu time:       0 days  0 hours 12 minutes 17.7 seconds.
 File lengths (MBytes):  RWF=      5 Int=      0 D2E=      0 Chk=      2 Scr=      1
 Normal termination of Gaussian 09 at Tue Jun 15 11:25:57 2021.
