 Entering Gaussian System, Link 0=/usr/local/apps//g09/g09
 Input=39.com
 Output=39.out
 Initial command:
 /usr/local/apps//g09/l1.exe "/tmp/bnp.472635.sequoia/Gau-29371.inp" -scrdir="/tmp/bnp.472635.sequoia/"
 Entering Link 1 = /usr/local/apps//g09/l1.exe PID=     29373.
  
 Copyright (c) 1988,1990,1992,1993,1995,1998,2003,2009,2013,
            Gaussian, Inc.  All Rights Reserved.
  
 This is part of the Gaussian(R) 09 program.  It is based on
 the Gaussian(R) 03 system (copyright 2003, Gaussian, Inc.),
 the Gaussian(R) 98 system (copyright 1998, Gaussian, Inc.),
 the Gaussian(R) 94 system (copyright 1995, Gaussian, Inc.),
 the Gaussian 92(TM) system (copyright 1992, Gaussian, Inc.),
 the Gaussian 90(TM) system (copyright 1990, Gaussian, Inc.),
 the Gaussian 88(TM) system (copyright 1988, Gaussian, Inc.),
 the Gaussian 86(TM) system (copyright 1986, Carnegie Mellon
 University), and the Gaussian 82(TM) system (copyright 1983,
 Carnegie Mellon University). Gaussian is a federally registered
 trademark of Gaussian, Inc.
  
 This software contains proprietary and confidential information,
 including trade secrets, belonging to Gaussian, Inc.
  
 This software is provided under written license and may be
 used, copied, transmitted, or stored only in accord with that
 written license.
  
 The following legend is applicable only to US Government
 contracts under FAR:
  
                    RESTRICTED RIGHTS LEGEND
  
 Use, reproduction and disclosure by the US Government is
 subject to restrictions as set forth in subparagraphs (a)
 and (c) of the Commercial Computer Software - Restricted
 Rights clause in FAR 52.227-19.
  
 Gaussian, Inc.
 340 Quinnipiac St., Bldg. 40, Wallingford CT 06492
  
  
 ---------------------------------------------------------------
 Warning -- This program may not be used in any manner that
 competes with the business of Gaussian, Inc. or will provide
 assistance to any competitor of Gaussian, Inc.  The licensee
 of this program is prohibited from giving any competitor of
 Gaussian, Inc. access to this program.  By using this program,
 the user acknowledges that Gaussian, Inc. is engaged in the
 business of creating and licensing software in the field of
 computational chemistry and represents and warrants to the
 licensee that it is not a competitor of Gaussian, Inc. and that
 it will not use this program in any manner prohibited above.
 ---------------------------------------------------------------
  

 Cite this work as:
 Gaussian 09, Revision D.01,
 M. J. Frisch, G. W. Trucks, H. B. Schlegel, G. E. Scuseria, 
 M. A. Robb, J. R. Cheeseman, G. Scalmani, V. Barone, B. Mennucci, 
 G. A. Petersson, H. Nakatsuji, M. Caricato, X. Li, H. P. Hratchian, 
 A. F. Izmaylov, J. Bloino, G. Zheng, J. L. Sonnenberg, M. Hada, 
 M. Ehara, K. Toyota, R. Fukuda, J. Hasegawa, M. Ishida, T. Nakajima, 
 Y. Honda, O. Kitao, H. Nakai, T. Vreven, J. A. Montgomery, Jr., 
 J. E. Peralta, F. Ogliaro, M. Bearpark, J. J. Heyd, E. Brothers, 
 K. N. Kudin, V. N. Staroverov, T. Keith, R. Kobayashi, J. Normand, 
 K. Raghavachari, A. Rendell, J. C. Burant, S. S. Iyengar, J. Tomasi, 
 M. Cossi, N. Rega, J. M. Millam, M. Klene, J. E. Knox, J. B. Cross, 
 V. Bakken, C. Adamo, J. Jaramillo, R. Gomperts, R. E. Stratmann, 
 O. Yazyev, A. J. Austin, R. Cammi, C. Pomelli, J. W. Ochterski, 
 R. L. Martin, K. Morokuma, V. G. Zakrzewski, G. A. Voth, 
 P. Salvador, J. J. Dannenberg, S. Dapprich, A. D. Daniels, 
 O. Farkas, J. B. Foresman, J. V. Ortiz, J. Cioslowski, 
 and D. J. Fox, Gaussian, Inc., Wallingford CT, 2013.
 
 ******************************************
 Gaussian 09:  ES64L-G09RevD.01 24-Apr-2013
                15-Jun-2021 
 ******************************************
 -------------------
 #N B3LYP/STO-3G OPT
 -------------------
 1/14=-1,18=20,19=15,26=3,38=1/1,3;
 2/9=110,12=2,17=6,18=5,40=1/2;
 3/6=3,11=2,16=1,25=1,30=1,71=1,74=-5/1,2,3;
 4//1;
 5/5=2,38=5/2;
 6/7=2,8=2,9=2,10=2,28=1/1;
 7//1,2,3,16;
 1/14=-1,18=20,19=15,26=3/3(2);
 2/9=110/2;
 99//99;
 2/9=110/2;
 3/6=3,11=2,16=1,25=1,30=1,71=1,74=-5/1,2,3;
 4/5=5,16=3,69=1/1;
 5/5=2,38=5/2;
 7//1,2,3,16;
 1/14=-1,18=20,19=15,26=3/3(-5);
 2/9=110/2;
 6/7=2,8=2,9=2,10=2,19=2,28=1/1;
 99/9=1/99;
 -----
 2Naph
 -----
 Symbolic Z-matrix:
 Charge = -1 Multiplicity = 1
 N                     1.24048  -0.24403  -0.00942 
 C                     2.40019  -0.20578  -0.00948 
 C                     4.60401  -1.30181  -0.01085 
 C                     3.83237  -0.13551  -0.01025 
 C                     4.46333   1.10806  -0.01037 
 C                     5.85865   1.18703  -0.01116 
 C                     6.66271   0.02357  -0.01188 
 C                     6.00556  -1.23184  -0.01148 
 C                     6.75729  -2.41097  -0.01186 
 C                     8.14882  -2.38037  -0.01226 
 C                     8.8118   -1.15733  -0.01261 
 C                     8.08253   0.04136  -0.01233 
 N                     9.39662   2.2803   -0.01534 
 C                     8.8131    1.2766   -0.01408 
 H                     4.11007  -2.27361  -0.01076 
 H                     3.87832   2.02671  -0.00974 
 H                     6.30987   2.17904  -0.01115 
 H                     8.70992  -3.31135  -0.01261 
 H                     9.90097  -1.13937  -0.01386 
 

 GradGradGradGradGradGradGradGradGradGradGradGradGradGradGradGradGradGrad
 Berny optimization.
 Initialization pass.
                           ----------------------------
                           !    Initial Parameters    !
                           ! (Angstroms and Degrees)  !
 --------------------------                            --------------------------
 ! Name  Definition              Value          Derivative Info.                !
 --------------------------------------------------------------------------------
 ! R1    R(1,2)                  1.1603         estimate D2E/DX2                !
 ! R2    R(2,4)                  1.4339         estimate D2E/DX2                !
 ! R3    R(3,4)                  1.3985         estimate D2E/DX2                !
 ! R4    R(3,8)                  1.4033         estimate D2E/DX2                !
 ! R5    R(3,15)                 1.0901         estimate D2E/DX2                !
 ! R6    R(4,5)                  1.3945         estimate D2E/DX2                !
 ! R7    R(5,6)                  1.3976         estimate D2E/DX2                !
 ! R8    R(5,16)                 1.0891         estimate D2E/DX2                !
 ! R9    R(6,7)                  1.4143         estimate D2E/DX2                !
 ! R10   R(6,17)                 1.0898         estimate D2E/DX2                !
 ! R11   R(7,8)                  1.417          estimate D2E/DX2                !
 ! R12   R(7,12)                 1.4199         estimate D2E/DX2                !
 ! R13   R(8,9)                  1.3984         estimate D2E/DX2                !
 ! R14   R(9,10)                 1.3919         estimate D2E/DX2                !
 ! R15   R(10,11)                1.3912         estimate D2E/DX2                !
 ! R16   R(10,18)                1.087          estimate D2E/DX2                !
 ! R17   R(11,12)                1.4031         estimate D2E/DX2                !
 ! R18   R(11,19)                1.0893         estimate D2E/DX2                !
 ! R19   R(12,14)                1.4351         estimate D2E/DX2                !
 ! R20   R(13,14)                1.161          estimate D2E/DX2                !
 ! A1    A(4,3,8)              120.6312         estimate D2E/DX2                !
 ! A2    A(4,3,15)             119.5678         estimate D2E/DX2                !
 ! A3    A(8,3,15)             119.801          estimate D2E/DX2                !
 ! A4    A(2,4,3)              120.6802         estimate D2E/DX2                !
 ! A5    A(2,4,5)              119.7112         estimate D2E/DX2                !
 ! A6    A(3,4,5)              119.6086         estimate D2E/DX2                !
 ! A7    A(4,5,6)              120.1415         estimate D2E/DX2                !
 ! A8    A(4,5,16)             120.6082         estimate D2E/DX2                !
 ! A9    A(6,5,16)             119.2503         estimate D2E/DX2                !
 ! A10   A(5,6,7)              121.4088         estimate D2E/DX2                !
 ! A11   A(5,6,17)             117.6979         estimate D2E/DX2                !
 ! A12   A(7,6,17)             120.8933         estimate D2E/DX2                !
 ! A13   A(6,7,8)              117.7219         estimate D2E/DX2                !
 ! A14   A(6,7,12)             123.9303         estimate D2E/DX2                !
 ! A15   A(8,7,12)             118.3479         estimate D2E/DX2                !
 ! A16   A(3,8,7)              120.488          estimate D2E/DX2                !
 ! A17   A(3,8,9)              119.6607         estimate D2E/DX2                !
 ! A18   A(7,8,9)              119.8513         estimate D2E/DX2                !
 ! A19   A(8,9,10)             121.259          estimate D2E/DX2                !
 ! A20   A(9,10,11)            119.7208         estimate D2E/DX2                !
 ! A21   A(9,10,18)            119.8176         estimate D2E/DX2                !
 ! A22   A(11,10,18)           120.4617         estimate D2E/DX2                !
 ! A23   A(10,11,12)           120.2231         estimate D2E/DX2                !
 ! A24   A(10,11,19)           119.4057         estimate D2E/DX2                !
 ! A25   A(12,11,19)           120.3712         estimate D2E/DX2                !
 ! A26   A(7,12,11)            120.598          estimate D2E/DX2                !
 ! A27   A(7,12,14)            121.3196         estimate D2E/DX2                !
 ! A28   A(11,12,14)           118.0823         estimate D2E/DX2                !
 ! A29   L(1,2,4,16,-1)        179.0801         estimate D2E/DX2                !
 ! A30   L(12,14,13,16,-1)     179.5706         estimate D2E/DX2                !
 ! A31   L(1,2,4,16,-2)        180.0344         estimate D2E/DX2                !
 ! A32   L(12,14,13,16,-2)     179.9919         estimate D2E/DX2                !
 ! D1    D(8,3,4,2)           -179.9941         estimate D2E/DX2                !
 ! D2    D(8,3,4,5)              0.0043         estimate D2E/DX2                !
 ! D3    D(15,3,4,2)             0.0018         estimate D2E/DX2                !
 ! D4    D(15,3,4,5)          -179.9997         estimate D2E/DX2                !
 ! D5    D(4,3,8,7)             -0.017          estimate D2E/DX2                !
 ! D6    D(4,3,8,9)            179.9899         estimate D2E/DX2                !
 ! D7    D(15,3,8,7)           179.9871         estimate D2E/DX2                !
 ! D8    D(15,3,8,9)            -0.006          estimate D2E/DX2                !
 ! D9    D(2,4,5,6)           -179.998          estimate D2E/DX2                !
 ! D10   D(2,4,5,16)             0.0088         estimate D2E/DX2                !
 ! D11   D(3,4,5,6)              0.0035         estimate D2E/DX2                !
 ! D12   D(3,4,5,16)          -179.9897         estimate D2E/DX2                !
 ! D13   D(4,5,6,7)              0.0013         estimate D2E/DX2                !
 ! D14   D(4,5,6,17)          -179.9955         estimate D2E/DX2                !
 ! D15   D(16,5,6,7)           179.9946         estimate D2E/DX2                !
 ! D16   D(16,5,6,17)           -0.0023         estimate D2E/DX2                !
 ! D17   D(5,6,7,8)             -0.0135         estimate D2E/DX2                !
 ! D18   D(5,6,7,12)          -179.9821         estimate D2E/DX2                !
 ! D19   D(17,6,7,8)           179.9832         estimate D2E/DX2                !
 ! D20   D(17,6,7,12)            0.0146         estimate D2E/DX2                !
 ! D21   D(6,7,8,3)              0.0211         estimate D2E/DX2                !
 ! D22   D(6,7,8,9)           -179.9858         estimate D2E/DX2                !
 ! D23   D(12,7,8,3)           179.9916         estimate D2E/DX2                !
 ! D24   D(12,7,8,9)            -0.0153         estimate D2E/DX2                !
 ! D25   D(6,7,12,11)          179.9796         estimate D2E/DX2                !
 ! D26   D(6,7,12,14)           -0.0937         estimate D2E/DX2                !
 ! D27   D(8,7,12,11)            0.0111         estimate D2E/DX2                !
 ! D28   D(8,7,12,14)          179.9378         estimate D2E/DX2                !
 ! D29   D(3,8,9,10)          -179.9891         estimate D2E/DX2                !
 ! D30   D(7,8,9,10)             0.0178         estimate D2E/DX2                !
 ! D31   D(8,9,10,11)           -0.0154         estimate D2E/DX2                !
 ! D32   D(8,9,10,18)         -179.9964         estimate D2E/DX2                !
 ! D33   D(9,10,11,12)           0.0109         estimate D2E/DX2                !
 ! D34   D(9,10,11,19)        -179.9434         estimate D2E/DX2                !
 ! D35   D(18,10,11,12)        179.9917         estimate D2E/DX2                !
 ! D36   D(18,10,11,19)          0.0375         estimate D2E/DX2                !
 ! D37   D(10,11,12,7)          -0.009          estimate D2E/DX2                !
 ! D38   D(10,11,12,14)       -179.9381         estimate D2E/DX2                !
 ! D39   D(19,11,12,7)         179.9448         estimate D2E/DX2                !
 ! D40   D(19,11,12,14)          0.0158         estimate D2E/DX2                !
 --------------------------------------------------------------------------------
 Trust Radius=3.00D-01 FncErr=1.00D-07 GrdErr=1.00D-06
 Number of steps in this run=    102 maximum allowed number of steps=    114.
 GradGradGradGradGradGradGradGradGradGradGradGradGradGradGradGradGradGrad

                          Input orientation:                          
 ---------------------------------------------------------------------
 Center     Atomic      Atomic             Coordinates (Angstroms)
 Number     Number       Type             X           Y           Z
 ---------------------------------------------------------------------
      1          7           0        1.240480   -0.244030   -0.009420
      2          6           0        2.400190   -0.205780   -0.009480
      3          6           0        4.604010   -1.301810   -0.010850
      4          6           0        3.832370   -0.135510   -0.010250
      5          6           0        4.463330    1.108060   -0.010370
      6          6           0        5.858650    1.187030   -0.011160
      7          6           0        6.662710    0.023570   -0.011880
      8          6           0        6.005560   -1.231840   -0.011480
      9          6           0        6.757290   -2.410970   -0.011860
     10          6           0        8.148820   -2.380370   -0.012260
     11          6           0        8.811800   -1.157330   -0.012610
     12          6           0        8.082530    0.041360   -0.012330
     13          7           0        9.396620    2.280300   -0.015340
     14          6           0        8.813100    1.276600   -0.014080
     15          1           0        4.110070   -2.273610   -0.010760
     16          1           0        3.878320    2.026710   -0.009740
     17          1           0        6.309870    2.179040   -0.011150
     18          1           0        8.709920   -3.311350   -0.012610
     19          1           0        9.900970   -1.139370   -0.013860
 ---------------------------------------------------------------------
                    Distance matrix (angstroms):
                    1          2          3          4          5
     1  N    0.000000
     2  C    1.160341   0.000000
     3  C    3.525937   2.461322   0.000000
     4  C    2.594161   1.433903   1.398458   0.000000
     5  C    3.494984   2.445961   2.413973   1.394481   0.000000
     6  C    4.834814   3.728387   2.787193   2.419695   1.397553
     7  C    5.428830   4.268686   2.448444   2.834808   2.452222
     8  C    4.866391   3.748533   1.403296   2.434070   2.802429
     9  C    5.927126   4.883358   2.422158   3.705790   4.200694
    10  C    7.231122   6.146186   3.705263   4.865300   5.074641
    11  C    7.626206   6.481836   4.210270   5.083192   4.903181
    12  C    6.848000   5.687713   3.728835   4.253839   3.773124
    13  N    8.537851   7.425002   5.983364   6.066057   5.070653
    14  C    7.723789   6.582012   4.936056   5.177040   4.353036
    15  H    3.514789   2.683209   1.090125   2.156059   3.400071
    16  H    3.480583   2.677476   3.406710   2.162708   1.089107
    17  H    5.618717   4.579625   3.876374   3.390450   2.134645
    18  H    8.074713   7.032586   4.571296   5.820349   6.129006
    19  H    8.706649   7.558658   5.299451   6.151069   5.883781
                    6          7          8          9         10
     6  C    0.000000
     7  C    1.414267   0.000000
     8  C    2.423327   1.417004   0.000000
     9  C    3.708525   2.436376   1.398373   0.000000
    10  C    4.239248   2.826208   2.431601   1.391866   0.000000
    11  C    3.770560   2.452165   2.807229   2.406787   1.391176
    12  C    2.501640   1.419932   2.436153   2.787505   2.422637
    13  N    3.703038   3.545011   4.882052   5.382759   4.824817
    14  C    2.955809   2.488828   3.764912   4.221911   3.716813
    15  H    3.877314   3.434095   2.162907   2.650782   4.040161
    16  H    2.150993   3.430073   3.891439   5.289752   6.136736
    17  H    1.089809   2.184158   3.424428   4.611765   4.916295
    18  H    5.325896   3.913152   3.411440   2.150221   1.086995
    19  H    4.663957   3.440750   3.896508   3.391120   2.147117
                   11         12         13         14         15
    11  C    0.000000
    12  C    1.403101   0.000000
    13  N    3.487022   2.596092   0.000000
    14  C    2.433931   1.435114   1.160996   0.000000
    15  H    4.832427   4.597774   6.977516   5.892580   0.000000
    16  H    5.871741   4.649409   5.524127   4.991466   4.306560
    17  H    4.170254   2.777049   3.088413   2.660933   4.966408
    18  H    2.156428   3.410906   5.633659   4.589110   4.715456
    19  H    1.089319   2.168144   3.456662   2.649599   5.900935
                   16         17         18         19
    16  H    0.000000
    17  H    2.436317   0.000000
    18  H    7.199948   5.992047   0.000000
    19  H    6.804145   4.889566   2.477115   0.000000
 Stoichiometry    C12H5N2(1-)
 Framework group  C1[X(C12H5N2)]
 Deg. of freedom    51
 Full point group                 C1      NOp   1
 Largest Abelian subgroup         C1      NOp   1
 Largest concise Abelian subgroup C1      NOp   1
                         Standard orientation:                         
 ---------------------------------------------------------------------
 Center     Atomic      Atomic             Coordinates (Angstroms)
 Number     Number       Type             X           Y           Z
 ---------------------------------------------------------------------
      1          7           0        4.843407   -0.202838   -0.000654
      2          6           0        3.683202   -0.185112   -0.000009
      3          6           0        1.534807    1.015930   -0.000320
      4          6           0        2.249299   -0.186228    0.000097
      5          6           0        1.559098   -1.397920    0.000655
      6          6           0        0.161593   -1.409503    0.000721
      7          6           0       -0.585420   -0.208618    0.000204
      8          6           0        0.131513    1.013637   -0.000092
      9          6           0       -0.562474    2.227650   -0.000304
     10          6           0       -1.953861    2.264198    0.000138
     11          6           0       -2.675055    1.074556    0.000480
     12          6           0       -2.004445   -0.157911    0.000610
     13          7           0       -3.424989   -2.330869   -0.001073
     14          6           0       -2.793740   -1.356479   -0.000404
     15          1           0        2.075041    1.962777   -0.000760
     16          1           0        2.099122   -2.343715    0.001155
     17          1           0       -0.336946   -2.378597    0.001241
     18          1           0       -2.469408    3.221156   -0.000099
     19          1           0       -3.763825    1.109146   -0.000112
 ---------------------------------------------------------------------
 Rotational constants (GHZ):      1.5134681      0.4657168      0.3561302
 Standard basis: STO-3G (5D, 7F)
 There are    75 symmetry adapted cartesian basis functions of A   symmetry.
 There are    75 symmetry adapted basis functions of A   symmetry.
    75 basis functions,   225 primitive gaussians,    75 cartesian basis functions
    46 alpha electrons       46 beta electrons
       nuclear repulsion energy       705.4530237117 Hartrees.
 NAtoms=   19 NActive=   19 NUniq=   19 SFac= 1.00D+00 NAtFMM=   60 NAOKFM=F Big=F
 Integral buffers will be    131072 words long.
 Raffenetti 2 integral format.
 Two-electron integral symmetry is turned on.
 One-electron integrals computed using PRISM.
 NBasis=    75 RedAO= T EigKep=  1.55D-01  NBF=    75
 NBsUse=    75 1.00D-06 EigRej= -1.00D+00 NBFU=    75
 ExpMin= 1.69D-01 ExpMax= 9.91D+01 ExpMxC= 9.91D+01 IAcc=1 IRadAn=         1 AccDes= 0.00D+00
 Harris functional with IExCor=  402 and IRadAn=       1 diagonalized for initial guess.
 HarFok:  IExCor=  402 AccDes= 0.00D+00 IRadAn=         1 IDoV= 1 UseB2=F ITyADJ=14
 ICtDFT=  3500011 ScaDFX=  1.000000  1.000000  1.000000  1.000000
 FoFCou: FMM=F IPFlag=           0 FMFlag=      100000 FMFlg1=           0
         NFxFlg=           0 DoJE=T BraDBF=F KetDBF=T FulRan=T
         wScrn=  0.000000 ICntrl=     500 IOpCl=  0 I1Cent=   200000004 NGrid=           0
         NMat0=    1 NMatS0=      1 NMatT0=    0 NMatD0=    1 NMtDS0=    0 NMtDT0=    0
 Petite list used in FoFCou.
 Keep R1 ints in memory in canonical form, NReq=4993994.
 Requested convergence on RMS density matrix=1.00D-08 within 128 cycles.
 Requested convergence on MAX density matrix=1.00D-06.
 Requested convergence on             energy=1.00D-06.
 No special actions if energy rises.
 Integral accuracy reduced to 1.0D-05 until final iterations.
 EnCoef did     3 forward-backward iterations
 EnCoef did     2 forward-backward iterations
 Initial convergence to 1.0D-05 achieved.  Increase integral accuracy.
 SCF Done:  E(RB3LYP) =  -562.482624871     A.U. after   30 cycles
            NFock= 30  Conv=0.27D-08     -V/T= 2.0128

 **********************************************************************

            Population analysis using the SCF density.

 **********************************************************************

 Orbital symmetries:
       Occupied  (A) (A) (A) (A) (A) (A) (A) (A) (A) (A) (A) (A)
                 (A) (A) (A) (A) (A) (A) (A) (A) (A) (A) (A) (A)
                 (A) (A) (A) (A) (A) (A) (A) (A) (A) (A) (A) (A)
                 (A) (A) (A) (A) (A) (A) (A) (A) (A) (A)
       Virtual   (A) (A) (A) (A) (A) (A) (A) (A) (A) (A) (A) (A)
                 (A) (A) (A) (A) (A) (A) (A) (A) (A) (A) (A) (A)
                 (A) (A) (A) (A) (A)
 The electronic state is 1-A.
 Alpha  occ. eigenvalues --  -13.99514 -13.96333  -9.90243  -9.90168  -9.88055
 Alpha  occ. eigenvalues --   -9.87513  -9.87482  -9.86886  -9.86605  -9.86464
 Alpha  occ. eigenvalues --   -9.85150  -9.83409  -9.79480  -9.64584  -0.74761
 Alpha  occ. eigenvalues --   -0.72286  -0.68385  -0.63424  -0.57800  -0.56061
 Alpha  occ. eigenvalues --   -0.52075  -0.45285  -0.43231  -0.39867  -0.36076
 Alpha  occ. eigenvalues --   -0.33214  -0.31243  -0.26695  -0.25364  -0.23497
 Alpha  occ. eigenvalues --   -0.21791  -0.21262  -0.20385  -0.18889  -0.17948
 Alpha  occ. eigenvalues --   -0.15697  -0.15061  -0.15058  -0.13216  -0.12911
 Alpha  occ. eigenvalues --   -0.10891  -0.10625  -0.07223  -0.04377   0.01908
 Alpha  occ. eigenvalues --    0.15130
 Alpha virt. eigenvalues --    0.18320   0.20387   0.25701   0.27090   0.29393
 Alpha virt. eigenvalues --    0.30347   0.37602   0.38731   0.45253   0.48137
 Alpha virt. eigenvalues --    0.48944   0.53037   0.55649   0.57165   0.58968
 Alpha virt. eigenvalues --    0.63273   0.64083   0.65550   0.70280   0.72345
 Alpha virt. eigenvalues --    0.74712   0.77640   0.82542   0.86683   0.87454
 Alpha virt. eigenvalues --    0.98157   1.00424   1.14123   1.16688
          Condensed to atoms (all electrons):
               1          2          3          4          5          6
     1  N    6.577561   0.687961  -0.000136  -0.011566  -0.000155  -0.000001
     2  C    0.687961   4.894053  -0.030325   0.427665  -0.032668   0.001044
     3  C   -0.000136  -0.030325   4.830939   0.498751  -0.031148  -0.011254
     4  C   -0.011566   0.427665   0.498751   4.769744   0.481517  -0.030824
     5  C   -0.000155  -0.032668  -0.031148   0.481517   4.821127   0.523303
     6  C   -0.000001   0.001044  -0.011254  -0.030824   0.523303   4.837242
     7  C    0.000000   0.000002  -0.036399  -0.008978  -0.027734   0.472922
     8  C   -0.000001   0.000981   0.485349  -0.029467  -0.010800  -0.028341
     9  C    0.000000  -0.000008  -0.041555   0.001069   0.000038   0.001172
    10  C    0.000000   0.000000   0.001412  -0.000016   0.000001   0.000055
    11  C    0.000000   0.000000  -0.000029   0.000001  -0.000008   0.000783
    12  C    0.000000   0.000000   0.000921   0.000036   0.000818  -0.029843
    13  N    0.000000   0.000000   0.000000   0.000000   0.000000  -0.000100
    14  C    0.000000   0.000000  -0.000008   0.000000   0.000016  -0.004564
    15  H    0.000061  -0.003686   0.387898  -0.026649   0.001425   0.000032
    16  H    0.000066  -0.003799   0.001415  -0.025812   0.390805  -0.025659
    17  H    0.000000  -0.000022   0.000010   0.001519  -0.028063   0.386285
    18  H    0.000000   0.000000  -0.000003   0.000000   0.000000   0.000002
    19  H    0.000000   0.000000   0.000002   0.000000   0.000000  -0.000015
               7          8          9         10         11         12
     1  N    0.000000  -0.000001   0.000000   0.000000   0.000000   0.000000
     2  C    0.000002   0.000981  -0.000008   0.000000   0.000000   0.000000
     3  C   -0.036399   0.485349  -0.041555   0.001412  -0.000029   0.000921
     4  C   -0.008978  -0.029467   0.001069  -0.000016   0.000001   0.000036
     5  C   -0.027734  -0.010800   0.000038   0.000001  -0.000008   0.000818
     6  C    0.472922  -0.028341   0.001172   0.000055   0.000783  -0.029843
     7  C    4.802743   0.448410  -0.030717  -0.011560  -0.027057   0.477887
     8  C    0.448410   4.828966   0.446912  -0.029123  -0.011830  -0.032604
     9  C   -0.030717   0.446912   5.444380   0.481484  -0.028965  -0.013083
    10  C   -0.011560  -0.029123   0.481484   4.886098   0.488471  -0.032845
    11  C   -0.027057  -0.011830  -0.028965   0.488471   4.848387   0.498056
    12  C    0.477887  -0.032604  -0.013083  -0.032845   0.498056   4.802895
    13  N   -0.000062  -0.000001   0.000000  -0.000001  -0.000175  -0.012062
    14  C   -0.029354   0.000874   0.000010   0.000988  -0.033291   0.432025
    15  H    0.001516  -0.023879  -0.001920   0.000036   0.000001  -0.000017
    16  H    0.001387   0.000040   0.000001   0.000000   0.000000  -0.000017
    17  H   -0.024515   0.001404  -0.000031  -0.000003   0.000013  -0.003338
    18  H   -0.000053   0.002068  -0.035922   0.387711  -0.034460   0.001374
    19  H    0.001293   0.000092   0.001752  -0.025652   0.380602  -0.026679
              13         14         15         16         17         18
     1  N    0.000000   0.000000   0.000061   0.000066   0.000000   0.000000
     2  C    0.000000   0.000000  -0.003686  -0.003799  -0.000022   0.000000
     3  C    0.000000  -0.000008   0.387898   0.001415   0.000010  -0.000003
     4  C    0.000000   0.000000  -0.026649  -0.025812   0.001519   0.000000
     5  C    0.000000   0.000016   0.001425   0.390805  -0.028063   0.000000
     6  C   -0.000100  -0.004564   0.000032  -0.025659   0.386285   0.000002
     7  C   -0.000062  -0.029354   0.001516   0.001387  -0.024515  -0.000053
     8  C   -0.000001   0.000874  -0.023879   0.000040   0.001404   0.002068
     9  C    0.000000   0.000010  -0.001920   0.000001  -0.000031  -0.035922
    10  C   -0.000001   0.000988   0.000036   0.000000  -0.000003   0.387711
    11  C   -0.000175  -0.033291   0.000001   0.000000   0.000013  -0.034460
    12  C   -0.012062   0.432025  -0.000017  -0.000017  -0.003338   0.001374
    13  N    6.604267   0.684828   0.000000   0.000000  -0.000114   0.000000
    14  C    0.684828   4.902899   0.000000   0.000000   0.001379  -0.000022
    15  H    0.000000   0.000000   0.583796  -0.000039   0.000003  -0.000005
    16  H    0.000000   0.000000  -0.000039   0.602251  -0.004274   0.000000
    17  H   -0.000114   0.001379   0.000003  -0.004274   0.606243   0.000000
    18  H    0.000000  -0.000022  -0.000005   0.000000   0.000000   0.657561
    19  H    0.000044  -0.004016   0.000000   0.000000  -0.000002  -0.002963
              19
     1  N    0.000000
     2  C    0.000000
     3  C    0.000002
     4  C    0.000000
     5  C    0.000000
     6  C   -0.000015
     7  C    0.001293
     8  C    0.000092
     9  C    0.001752
    10  C   -0.025652
    11  C    0.380602
    12  C   -0.026679
    13  N    0.000044
    14  C   -0.004016
    15  H    0.000000
    16  H    0.000000
    17  H   -0.000002
    18  H   -0.002963
    19  H    0.627434
 Mulliken charges:
               1
     1  N   -0.253789
     2  C    0.058803
     3  C   -0.055842
     4  C   -0.046988
     5  C   -0.088474
     6  C   -0.092240
     7  C   -0.009731
     8  C   -0.049048
     9  C   -0.224616
    10  C   -0.147056
    11  C   -0.080501
    12  C   -0.063524
    13  N   -0.276624
    14  C    0.048238
    15  H    0.081427
    16  H    0.063638
    17  H    0.063506
    18  H    0.024712
    19  H    0.048108
 Sum of Mulliken charges =  -1.00000
 Mulliken charges with hydrogens summed into heavy atoms:
               1
     1  N   -0.253789
     2  C    0.058803
     3  C    0.025585
     4  C   -0.046988
     5  C   -0.024836
     6  C   -0.028734
     7  C   -0.009731
     8  C   -0.049048
     9  C   -0.224616
    10  C   -0.122344
    11  C   -0.032393
    12  C   -0.063524
    13  N   -0.276624
    14  C    0.048238
 Electronic spatial extent (au):  <R**2>=           2849.1524
 Charge=             -1.0000 electrons
 Dipole moment (field-independent basis, Debye):
    X=              0.3465    Y=             -1.8837    Z=              0.0325  Tot=              1.9156
 Quadrupole moment (field-independent basis, Debye-Ang):
   XX=           -121.8198   YY=            -95.9791   ZZ=            -73.8004
   XY=             -7.6534   XZ=              0.0189   YZ=              0.0626
 Traceless Quadrupole moment (field-independent basis, Debye-Ang):
   XX=            -24.6201   YY=              1.2207   ZZ=             23.3994
   XY=             -7.6534   XZ=              0.0189   YZ=              0.0626
 Octapole moment (field-independent basis, Debye-Ang**2):
  XXX=           -104.6568  YYY=            -27.5262  ZZZ=              0.0119  XYY=             46.5023
  XXY=             48.7859  XXZ=              0.0234  XZZ=              1.7749  YZZ=             -2.0720
  YYZ=              0.2103  XYZ=              0.0392
 Hexadecapole moment (field-independent basis, Debye-Ang**3):
 XXXX=          -3757.8192 YYYY=          -1087.2676 ZZZZ=            -57.9531 XXXY=           -117.2276
 XXXZ=              0.1537 YYYX=            -63.9527 YYYZ=              0.5258 ZZZX=              0.0100
 ZZZY=              0.0479 XXYY=           -712.2482 XXZZ=           -449.4350 YYZZ=           -164.8918
 XXYZ=             -0.1105 YYXZ=             -0.0468 ZZXY=              6.9970
 N-N= 7.054530237117D+02 E-N=-2.733128790389D+03  KE= 5.553783265738D+02
 Calling FoFJK, ICntrl=      2127 FMM=F ISym2X=0 I1Cent= 0 IOpClX= 0 NMat=1 NMatS=1 NMatT=0.
 ***** Axes restored to original set *****
 -------------------------------------------------------------------
 Center     Atomic                   Forces (Hartrees/Bohr)
 Number     Number              X              Y              Z
 -------------------------------------------------------------------
      1        7          -0.103239097   -0.004098634   -0.000038357
      2        6           0.079704060    0.002923901    0.000174918
      3        6          -0.018487984    0.005411188   -0.000611082
      4        6          -0.010482860   -0.023975994    0.000295912
      5        6           0.034667502    0.030467697   -0.000214763
      6        6          -0.021585332    0.020635560    0.000077493
      7        6          -0.008258268    0.028711143   -0.000513272
      8        6           0.023511084   -0.000510271    0.000743130
      9        6          -0.023652791   -0.100130034   -0.001383762
     10        6          -0.014392072    0.021993239    0.001332535
     11        6           0.016605140   -0.010197152    0.000137349
     12        6           0.016640706    0.007508464   -0.000149588
     13        7           0.053318381    0.088982102   -0.000094672
     14        6          -0.048308548   -0.071903206    0.000042302
     15        1          -0.000698916   -0.007599243    0.000149858
     16        1          -0.005052349    0.004768974    0.000007001
     17        1           0.005646958    0.006389535    0.000352543
     18        1           0.012654598   -0.008109528    0.000194336
     19        1           0.011409789    0.008732258   -0.000501883
 -------------------------------------------------------------------
 Cartesian Forces:  Max     0.103239097 RMS     0.030616621

 GradGradGradGradGradGradGradGradGradGradGradGradGradGradGradGradGradGrad
 Berny optimization.
 FormGI is forming the generalized inverse of G from B-inverse, IUseBI=4.
 Internal  Forces:  Max     0.103724308 RMS     0.021126653
 Search for a local minimum.
 Step number   1 out of a maximum of  102
 All quantities printed in internal units (Hartrees-Bohrs-Radians)
 Mixed Optimization -- RFO/linear search
 Second derivative matrix not updated -- first step.
 ITU=  0
     Eigenvalues ---    0.01640   0.01640   0.01887   0.01893   0.01937
     Eigenvalues ---    0.01964   0.02010   0.02051   0.02055   0.02077
     Eigenvalues ---    0.02121   0.02127   0.02131   0.02144   0.02169
     Eigenvalues ---    0.02202   0.04853   0.04853   0.16000   0.16000
     Eigenvalues ---    0.16000   0.16000   0.16000   0.22404   0.22443
     Eigenvalues ---    0.23508   0.24452   0.24617   0.25000   0.25000
     Eigenvalues ---    0.25000   0.34798   0.34835   0.34891   0.34916
     Eigenvalues ---    0.35162   0.38263   0.40263   0.40434   0.40678
     Eigenvalues ---    0.41087   0.43163   0.43855   0.45035   0.45543
     Eigenvalues ---    0.45557   0.45753   0.46220   0.46848   1.27144
     Eigenvalues ---    1.27571
 RFO step:  Lambda=-6.26969648D-02 EMin= 1.64028309D-02
 Linear search not attempted -- first point.
 Maximum step size (   0.300) exceeded in Quadratic search.
    -- Step size scaled by   0.828
 Iteration  1 RMS(Cart)=  0.04454620 RMS(Int)=  0.00117610
 Iteration  2 RMS(Cart)=  0.00228407 RMS(Int)=  0.00030576
 Iteration  3 RMS(Cart)=  0.00000127 RMS(Int)=  0.00030576
 Iteration  4 RMS(Cart)=  0.00000000 RMS(Int)=  0.00030576
 Variable       Old X    -DE/DX   Delta X   Delta X   Delta X     New X
                                 (Linear)    (Quad)   (Total)
    R1        2.19273   0.10332   0.00000   0.06391   0.06391   2.25664
    R2        2.70968   0.02356   0.00000   0.04177   0.04177   2.75146
    R3        2.64270   0.01696   0.00000   0.02712   0.02724   2.66994
    R4        2.65184   0.03041   0.00000   0.05047   0.05071   2.70255
    R5        2.06004   0.00709   0.00000   0.01430   0.01430   2.07433
    R6        2.63519   0.04367   0.00000   0.06724   0.06712   2.70231
    R7        2.64099  -0.00722   0.00000  -0.01285  -0.01309   2.62790
    R8        2.05811   0.00674   0.00000   0.01354   0.01354   2.07166
    R9        2.67258   0.02508   0.00000   0.04163   0.04151   2.71408
   R10        2.05944   0.00815   0.00000   0.01643   0.01643   2.07587
   R11        2.67775   0.05108   0.00000   0.08953   0.08952   2.76727
   R12        2.68328   0.01895   0.00000   0.03178   0.03120   2.71448
   R13        2.64254   0.05888   0.00000   0.09586   0.09628   2.73882
   R14        2.63025   0.02975   0.00000   0.04660   0.04717   2.67741
   R15        2.62894   0.03210   0.00000   0.04776   0.04791   2.67685
   R16        2.05412   0.01348   0.00000   0.02693   0.02693   2.08106
   R17        2.65148   0.01678   0.00000   0.02457   0.02415   2.67563
   R18        2.05851   0.01155   0.00000   0.02324   0.02324   2.08175
   R19        2.71197   0.01725   0.00000   0.03069   0.03069   2.74267
   R20        2.19396   0.10372   0.00000   0.06437   0.06437   2.25833
    A1        2.10541   0.00764   0.00000   0.02572   0.02603   2.13144
    A2        2.08685  -0.00092   0.00000  -0.00206  -0.00222   2.08463
    A3        2.09092  -0.00673   0.00000  -0.02366  -0.02382   2.06711
    A4        2.10627  -0.00082   0.00000  -0.00143  -0.00140   2.10487
    A5        2.08935   0.00075   0.00000   0.00272   0.00275   2.09210
    A6        2.08756   0.00007   0.00000  -0.00130  -0.00135   2.08622
    A7        2.09686   0.00327   0.00000   0.00493   0.00451   2.10137
    A8        2.10501  -0.00338   0.00000  -0.00897  -0.00876   2.09625
    A9        2.08131   0.00011   0.00000   0.00404   0.00425   2.08556
   A10        2.11898  -0.00123   0.00000  -0.00628  -0.00670   2.11228
   A11        2.05422   0.00318   0.00000   0.01269   0.01290   2.06712
   A12        2.10999  -0.00196   0.00000  -0.00641  -0.00620   2.10379
   A13        2.05463   0.01207   0.00000   0.03315   0.03351   2.08815
   A14        2.16299  -0.00717   0.00000  -0.02096  -0.02051   2.14248
   A15        2.06556  -0.00489   0.00000  -0.01218  -0.01300   2.05256
   A16        2.10291  -0.02182   0.00000  -0.05621  -0.05601   2.04691
   A17        2.08847  -0.00468   0.00000  -0.01805  -0.01833   2.07014
   A18        2.09180   0.02650   0.00000   0.07426   0.07434   2.16613
   A19        2.11637  -0.05119   0.00000  -0.13039  -0.12883   1.98753
   A20        2.08952   0.02843   0.00000   0.07867   0.07934   2.16886
   A21        2.09121  -0.00738   0.00000  -0.01394  -0.01428   2.07693
   A22        2.10245  -0.02105   0.00000  -0.06473  -0.06507   2.03738
   A23        2.09829   0.00803   0.00000   0.01375   0.01338   2.11167
   A24        2.08402   0.00478   0.00000   0.02581   0.02600   2.11002
   A25        2.10087  -0.01281   0.00000  -0.03956  -0.03938   2.06149
   A26        2.10483  -0.00688   0.00000  -0.02411  -0.02524   2.07959
   A27        2.11743  -0.00100   0.00000   0.00031   0.00088   2.11830
   A28        2.06093   0.00787   0.00000   0.02380   0.02436   2.08529
   A29        3.12554   0.00152   0.00000   0.01589   0.01589   3.14142
   A30        3.13410   0.00301   0.00000   0.02242   0.02242   3.15652
   A31        3.14219   0.00008   0.00000   0.00082   0.00082   3.14301
   A32        3.14145  -0.00004   0.00000  -0.00028  -0.00028   3.14117
    D1       -3.14149   0.00018   0.00000   0.00179   0.00181  -3.13968
    D2        0.00008   0.00015   0.00000   0.00143   0.00146   0.00154
    D3        0.00003  -0.00007   0.00000  -0.00071  -0.00070  -0.00067
    D4       -3.14159  -0.00010   0.00000  -0.00107  -0.00105   3.14055
    D5       -0.00030  -0.00019   0.00000  -0.00196  -0.00194  -0.00224
    D6        3.14142  -0.00021   0.00000  -0.00216  -0.00211   3.13931
    D7        3.14137   0.00006   0.00000   0.00054   0.00055  -3.14127
    D8       -0.00010   0.00004   0.00000   0.00035   0.00038   0.00027
    D9       -3.14156  -0.00009   0.00000  -0.00093  -0.00091   3.14072
   D10        0.00015   0.00000   0.00000  -0.00003  -0.00002   0.00014
   D11        0.00006  -0.00006   0.00000  -0.00057  -0.00056  -0.00050
   D12       -3.14141   0.00003   0.00000   0.00033   0.00033  -3.14108
   D13        0.00002   0.00003   0.00000   0.00026   0.00026   0.00028
   D14       -3.14151   0.00018   0.00000   0.00179   0.00180  -3.13971
   D15        3.14150  -0.00006   0.00000  -0.00063  -0.00063   3.14087
   D16       -0.00004   0.00009   0.00000   0.00090   0.00091   0.00087
   D17       -0.00023  -0.00008   0.00000  -0.00077  -0.00080  -0.00104
   D18       -3.14128   0.00003   0.00000   0.00026   0.00031  -3.14097
   D19        3.14130  -0.00023   0.00000  -0.00235  -0.00238   3.13892
   D20        0.00025  -0.00013   0.00000  -0.00131  -0.00126  -0.00101
   D21        0.00037   0.00016   0.00000   0.00160   0.00159   0.00196
   D22       -3.14134   0.00018   0.00000   0.00179   0.00176  -3.13959
   D23        3.14145   0.00006   0.00000   0.00062   0.00053  -3.14121
   D24       -0.00027   0.00008   0.00000   0.00081   0.00070   0.00043
   D25        3.14124  -0.00036   0.00000  -0.00359  -0.00366   3.13758
   D26       -0.00163  -0.00022   0.00000  -0.00230  -0.00225  -0.00389
   D27        0.00019  -0.00026   0.00000  -0.00256  -0.00258  -0.00239
   D28        3.14051  -0.00012   0.00000  -0.00128  -0.00117   3.13933
   D29       -3.14140   0.00037   0.00000   0.00372   0.00360  -3.13781
   D30        0.00031   0.00036   0.00000   0.00353   0.00343   0.00374
   D31       -0.00027  -0.00063   0.00000  -0.00616  -0.00609  -0.00636
   D32       -3.14153  -0.00021   0.00000  -0.00215  -0.00189   3.13976
   D33        0.00019   0.00045   0.00000   0.00438   0.00460   0.00479
   D34       -3.14060   0.00052   0.00000   0.00503   0.00523  -3.13538
   D35        3.14145   0.00004   0.00000   0.00036   0.00050  -3.14124
   D36        0.00065   0.00011   0.00000   0.00101   0.00113   0.00178
   D37       -0.00016  -0.00001   0.00000  -0.00002   0.00016   0.00001
   D38       -3.14051  -0.00013   0.00000  -0.00125  -0.00120   3.14148
   D39        3.14063  -0.00006   0.00000  -0.00065  -0.00042   3.14021
   D40        0.00028  -0.00019   0.00000  -0.00188  -0.00178  -0.00150
         Item               Value     Threshold  Converged?
 Maximum Force            0.103724     0.000450     NO 
 RMS     Force            0.021127     0.000300     NO 
 Maximum Displacement     0.262067     0.001800     NO 
 RMS     Displacement     0.043775     0.001200     NO 
 Predicted change in Energy=-3.323464D-02
 GradGradGradGradGradGradGradGradGradGradGradGradGradGradGradGradGradGrad

                          Input orientation:                          
 ---------------------------------------------------------------------
 Center     Atomic      Atomic             Coordinates (Angstroms)
 Number     Number       Type             X           Y           Z
 ---------------------------------------------------------------------
      1          7           0        1.166886   -0.248182   -0.008116
      2          6           0        2.359895   -0.195722   -0.008610
      3          6           0        4.586621   -1.314732   -0.013916
      4          6           0        3.814486   -0.131513   -0.010874
      5          6           0        4.471270    1.138737   -0.009549
      6          6           0        5.859914    1.212937   -0.010635
      7          6           0        6.664773    0.023419   -0.013444
      8          6           0        6.016531   -1.289661   -0.013880
      9          6           0        6.732739   -2.549650   -0.014211
     10          6           0        8.142459   -2.408010   -0.009237
     11          6           0        8.819019   -1.163496   -0.011766
     12          6           0        8.100827    0.056717   -0.013888
     13          7           0        9.441070    2.338571   -0.017853
     14          6           0        8.827418    1.313099   -0.016306
     15          1           0        4.080920   -2.288995   -0.013931
     16          1           0        3.881402    2.062784   -0.006706
     17          1           0        6.330730    2.205422   -0.007747
     18          1           0        8.769957   -3.312989   -0.007336
     19          1           0        9.919695   -1.118036   -0.013485
 ---------------------------------------------------------------------
                    Distance matrix (angstroms):
                    1          2          3          4          5
     1  N    0.000000
     2  C    1.194162   0.000000
     3  C    3.582199   2.492091   0.000000
     4  C    2.650171   1.456009   1.412872   0.000000
     5  C    3.583644   2.497737   2.456183   1.430001   0.000000
     6  C    4.915220   3.772858   2.830264   2.447718   1.390625
     7  C    5.504595   4.310455   2.471713   2.854496   2.460773
     8  C    4.960219   3.816768   1.430130   2.488035   2.878361
     9  C    6.022916   4.966163   2.476055   3.789934   4.326484
    10  C    7.302292   6.191305   3.720116   4.890173   5.104610
    11  C    7.706683   6.531223   4.235100   5.109828   4.919675
    12  C    6.940644   5.746482   3.772336   4.290473   3.787409
    13  N    8.669113   7.521022   6.075551   6.144902   5.112591
    14  C    7.818019   6.641193   4.988974   5.216936   4.359641
    15  H    3.557604   2.709934   1.097690   2.173873   3.449890
    16  H    3.564991   2.723204   3.450362   2.195321   1.096274
    17  H    5.717120   4.640370   3.928542   3.434059   2.143691
    18  H    8.197544   7.127850   4.636095   5.888845   6.188423
    19  H    8.795928   7.615856   5.336701   6.184401   5.897319
                    6          7          8          9         10
     6  C    0.000000
     7  C    1.436231   0.000000
     8  C    2.507496   1.464376   0.000000
     9  C    3.862499   2.573966   1.449319   0.000000
    10  C    4.280336   2.845245   2.402144   1.416826   0.000000
    11  C    3.795226   2.459582   2.805327   2.504794   1.416529
    12  C    2.521616   1.436440   2.481335   2.943605   2.465083
    13  N    3.753903   3.614938   4.989143   5.588361   4.921026
    14  C    2.969199   2.517998   3.830855   4.394145   3.783632
    15  H    3.927895   3.467500   2.178362   2.664599   4.063285
    16  H    2.153315   3.450538   3.974634   5.422613   6.176133
    17  H    1.098501   2.207432   3.509183   4.772040   4.956422
    18  H    5.380741   3.945055   3.416907   2.175544   1.101247
    19  H    4.681375   3.449266   3.906936   3.493738   2.196046
                   11         12         13         14         15
    11  C    0.000000
    12  C    1.415883   0.000000
    13  N    3.556889   2.646342   0.000000
    14  C    2.476613   1.451356   1.195059   0.000000
    15  H    4.869943   4.654248   7.081356   5.958551   0.000000
    16  H    5.898218   4.672035   5.566516   5.002519   4.356357
    17  H    4.188222   2.783920   3.113205   2.651370   5.026079
    18  H    2.150058   3.435506   5.691278   4.626454   4.799550
    19  H    1.101616   2.165255   3.489590   2.665239   5.955035
                   16         17         18         19
    16  H    0.000000
    17  H    2.453479   0.000000
    18  H    7.266148   6.033464   0.000000
    19  H    6.824856   4.891429   2.477853   0.000000
 Stoichiometry    C12H5N2(1-)
 Framework group  C1[X(C12H5N2)]
 Deg. of freedom    51
 Full point group                 C1      NOp   1
 Largest Abelian subgroup         C1      NOp   1
 Largest concise Abelian subgroup C1      NOp   1
                         Standard orientation:                         
 ---------------------------------------------------------------------
 Center     Atomic      Atomic             Coordinates (Angstroms)
 Number     Number       Type             X           Y           Z
 ---------------------------------------------------------------------
      1          7           0        4.911374   -0.232887    0.000314
      2          6           0        3.717271   -0.220993    0.000748
      3          6           0        1.554066    1.016363   -0.003278
      4          6           0        2.261332   -0.206738   -0.000385
      5          6           0        1.537064   -1.439756    0.001912
      6          6           0        0.146439   -1.439030    0.001911
      7          6           0       -0.593164   -0.207876   -0.000727
      8          6           0        0.124883    1.068370   -0.002144
      9          6           0       -0.522399    2.365117   -0.002398
     10          6           0       -1.937698    2.299638    0.003702
     11          6           0       -2.680330    1.093383    0.002150
     12          6           0       -2.028926   -0.163753   -0.000065
     13          7           0       -3.490168   -2.370083   -0.002162
     14          6           0       -2.822155   -1.379163   -0.001463
     15          1           0        2.111525    1.961964   -0.004040
     16          1           0        2.076291   -2.394241    0.004649
     17          1           0       -0.377165   -2.404706    0.005526
     18          1           0       -2.515524    3.237113    0.005744
     19          1           0       -3.781857    1.107293    0.001285
 ---------------------------------------------------------------------
 Rotational constants (GHZ):      1.4357205      0.4565377      0.3463910
 Standard basis: STO-3G (5D, 7F)
 There are    75 symmetry adapted cartesian basis functions of A   symmetry.
 There are    75 symmetry adapted basis functions of A   symmetry.
    75 basis functions,   225 primitive gaussians,    75 cartesian basis functions
    46 alpha electrons       46 beta electrons
       nuclear repulsion energy       694.1377661915 Hartrees.
 NAtoms=   19 NActive=   19 NUniq=   19 SFac= 1.00D+00 NAtFMM=   60 NAOKFM=F Big=F
 Integral buffers will be    131072 words long.
 Raffenetti 2 integral format.
 Two-electron integral symmetry is turned on.
 One-electron integrals computed using PRISM.
 NBasis=    75 RedAO= T EigKep=  1.73D-01  NBF=    75
 NBsUse=    75 1.00D-06 EigRej= -1.00D+00 NBFU=    75
 Initial guess from the checkpoint file:  "/tmp/bnp.472635.sequoia/Gau-29373.chk"
 B after Tr=     0.000000    0.000000    0.000000
         Rot=    0.999995   -0.000006    0.000000    0.003165 Ang=  -0.36 deg.
 ExpMin= 1.69D-01 ExpMax= 9.91D+01 ExpMxC= 9.91D+01 IAcc=1 IRadAn=         1 AccDes= 0.00D+00
 Harris functional with IExCor=  402 and IRadAn=       1 diagonalized for initial guess.
 HarFok:  IExCor=  402 AccDes= 0.00D+00 IRadAn=         1 IDoV= 1 UseB2=F ITyADJ=14
 ICtDFT=  3500011 ScaDFX=  1.000000  1.000000  1.000000  1.000000
 FoFCou: FMM=F IPFlag=           0 FMFlag=      100000 FMFlg1=           0
         NFxFlg=           0 DoJE=T BraDBF=F KetDBF=T FulRan=T
         wScrn=  0.000000 ICntrl=     500 IOpCl=  0 I1Cent=   200000004 NGrid=           0
         NMat0=    1 NMatS0=      1 NMatT0=    0 NMatD0=    1 NMtDS0=    0 NMtDT0=    0
 Petite list used in FoFCou.
 Keep R1 ints in memory in canonical form, NReq=4993994.
 Requested convergence on RMS density matrix=1.00D-08 within 128 cycles.
 Requested convergence on MAX density matrix=1.00D-06.
 Requested convergence on             energy=1.00D-06.
 No special actions if energy rises.
 Integral accuracy reduced to 1.0D-05 until final iterations.
 Initial convergence to 1.0D-05 achieved.  Increase integral accuracy.
 SCF Done:  E(RB3LYP) =  -562.514329523     A.U. after   18 cycles
            NFock= 18  Conv=0.66D-08     -V/T= 2.0139
 Calling FoFJK, ICntrl=      2127 FMM=F ISym2X=0 I1Cent= 0 IOpClX= 0 NMat=1 NMatS=1 NMatT=0.
 ***** Axes restored to original set *****
 -------------------------------------------------------------------
 Center     Atomic                   Forces (Hartrees/Bohr)
 Number     Number              X              Y              Z
 -------------------------------------------------------------------
      1        7          -0.013645272   -0.000513528    0.000052353
      2        6           0.010306413    0.000293853   -0.000102107
      3        6          -0.004816685    0.008925378    0.000056540
      4        6          -0.001450457   -0.009852450   -0.000015999
      5        6           0.011234783    0.007769633    0.000030549
      6        6          -0.009173833    0.003009308    0.000029377
      7        6          -0.008055405    0.003144357    0.000116301
      8        6           0.011429188    0.013953618   -0.000038528
      9        6          -0.013242214   -0.039525518   -0.000040209
     10        6           0.002164041    0.018217183   -0.000099952
     11        6           0.003036848   -0.008374656    0.000045113
     12        6           0.006793770    0.001334256   -0.000053957
     13        7           0.007059324    0.011570435   -0.000024833
     14        6          -0.006820467   -0.008642570    0.000019597
     15        1           0.000125592   -0.002073630   -0.000011856
     16        1          -0.002543770   -0.000049082    0.000003453
     17        1           0.002879342   -0.000663138   -0.000030073
     18        1           0.003730011   -0.000249802    0.000066873
     19        1           0.000988789    0.001726352   -0.000002642
 -------------------------------------------------------------------
 Cartesian Forces:  Max     0.039525518 RMS     0.008077050

 GradGradGradGradGradGradGradGradGradGradGradGradGradGradGradGradGradGrad
 Berny optimization.
 Using GEDIIS/GDIIS optimizer.
 FormGI is forming the generalized inverse of G from B-inverse, IUseBI=4.
 Internal  Forces:  Max     0.021171706 RMS     0.004843154
 Search for a local minimum.
 Step number   2 out of a maximum of  102
 All quantities printed in internal units (Hartrees-Bohrs-Radians)
 Mixed Optimization -- RFO/linear search
 Update second derivatives using D2CorX and points    1    2
 DE= -3.17D-02 DEPred=-3.32D-02 R= 9.54D-01
 TightC=F SS=  1.41D+00  RLast= 3.00D-01 DXNew= 5.0454D-01 9.0078D-01
 Trust test= 9.54D-01 RLast= 3.00D-01 DXMaxT set to 5.05D-01
 ITU=  1  0
 Use linear search instead of GDIIS.
     Eigenvalues ---    0.01640   0.01642   0.01887   0.01895   0.01938
     Eigenvalues ---    0.01964   0.02011   0.02048   0.02054   0.02077
     Eigenvalues ---    0.02124   0.02127   0.02131   0.02144   0.02173
     Eigenvalues ---    0.02202   0.04853   0.04861   0.15872   0.16000
     Eigenvalues ---    0.16000   0.16000   0.16104   0.21762   0.22454
     Eigenvalues ---    0.23321   0.23808   0.24629   0.24928   0.25000
     Eigenvalues ---    0.25005   0.34795   0.34847   0.34909   0.34966
     Eigenvalues ---    0.35222   0.38572   0.40295   0.40586   0.40732
     Eigenvalues ---    0.41191   0.42658   0.43521   0.44670   0.45392
     Eigenvalues ---    0.45558   0.46145   0.46431   0.50486   1.27354
     Eigenvalues ---    1.33290
 RFO step:  Lambda=-3.31615177D-03 EMin= 1.64028167D-02
 Quartic linear search produced a step of  0.35565.
 Iteration  1 RMS(Cart)=  0.02137072 RMS(Int)=  0.00066399
 Iteration  2 RMS(Cart)=  0.00125482 RMS(Int)=  0.00028474
 Iteration  3 RMS(Cart)=  0.00000043 RMS(Int)=  0.00028474
 Variable       Old X    -DE/DX   Delta X   Delta X   Delta X     New X
                                 (Linear)    (Quad)   (Total)
    R1        2.25664   0.01365   0.02273  -0.01048   0.01225   2.26889
    R2        2.75146   0.00335   0.01486  -0.00584   0.00901   2.76047
    R3        2.66994  -0.00242   0.00969  -0.01815  -0.00839   2.66155
    R4        2.70255   0.00527   0.01803  -0.00451   0.01367   2.71622
    R5        2.07433   0.00178   0.00508   0.00102   0.00610   2.08043
    R6        2.70231   0.00792   0.02387  -0.00449   0.01932   2.72163
    R7        2.62790  -0.00458  -0.00466  -0.00836  -0.01316   2.61474
    R8        2.07166   0.00133   0.00482  -0.00045   0.00437   2.07603
    R9        2.71408   0.00371   0.01476  -0.00518   0.00950   2.72359
   R10        2.07587   0.00063   0.00584  -0.00428   0.00156   2.07742
   R11        2.76727   0.00436   0.03184  -0.02065   0.01115   2.77842
   R12        2.71448   0.00470   0.01109   0.00165   0.01219   2.72666
   R13        2.73882   0.02117   0.03424   0.02516   0.05980   2.79862
   R14        2.67741   0.01367   0.01677   0.02064   0.03794   2.71536
   R15        2.67685   0.00011   0.01704  -0.02035  -0.00318   2.67368
   R16        2.08106   0.00233   0.00958  -0.00213   0.00745   2.08850
   R17        2.67563   0.00165   0.00859  -0.00680   0.00137   2.67700
   R18        2.08175   0.00106   0.00826  -0.00544   0.00282   2.08457
   R19        2.74267   0.00265   0.01092  -0.00361   0.00731   2.74998
   R20        2.25833   0.01355   0.02289  -0.01072   0.01217   2.27051
    A1        2.13144   0.00430   0.00926   0.01518   0.02460   2.15605
    A2        2.08463  -0.00104  -0.00079  -0.00316  -0.00404   2.08059
    A3        2.06711  -0.00326  -0.00847  -0.01201  -0.02056   2.04654
    A4        2.10487   0.00030  -0.00050   0.00258   0.00210   2.10697
    A5        2.09210   0.00030   0.00098   0.00087   0.00186   2.09397
    A6        2.08622  -0.00060  -0.00048  -0.00345  -0.00397   2.08225
    A7        2.10137  -0.00106   0.00160  -0.00940  -0.00805   2.09332
    A8        2.09625  -0.00172  -0.00311  -0.01109  -0.01407   2.08218
    A9        2.08556   0.00278   0.00151   0.02048   0.02212   2.10768
   A10        2.11228   0.00067  -0.00238   0.00678   0.00413   2.11641
   A11        2.06712   0.00266   0.00459   0.01724   0.02197   2.08908
   A12        2.10379  -0.00333  -0.00221  -0.02402  -0.02610   2.07769
   A13        2.08815   0.00320   0.01192   0.00366   0.01593   2.10407
   A14        2.14248  -0.00186  -0.00730  -0.00198  -0.00884   2.13364
   A15        2.05256  -0.00134  -0.00462  -0.00167  -0.00708   2.04548
   A16        2.04691  -0.00652  -0.01992  -0.01277  -0.03264   2.01426
   A17        2.07014  -0.00423  -0.00652  -0.01772  -0.02444   2.04570
   A18        2.16613   0.01074   0.02644   0.03049   0.05709   2.22322
   A19        1.98753  -0.02104  -0.04582  -0.05409  -0.09834   1.88919
   A20        2.16886   0.01178   0.02822   0.03394   0.06276   2.23163
   A21        2.07693  -0.00285  -0.00508  -0.00292  -0.00830   2.06863
   A22        2.03738  -0.00893  -0.02314  -0.03100  -0.05445   1.98293
   A23        2.11167   0.00212   0.00476  -0.00141   0.00294   2.11461
   A24        2.11002   0.00069   0.00925   0.00085   0.01030   2.12032
   A25        2.06149  -0.00281  -0.01401   0.00056  -0.01324   2.04825
   A26        2.07959  -0.00226  -0.00898  -0.00724  -0.01735   2.06224
   A27        2.11830  -0.00047   0.00031   0.00002   0.00090   2.11920
   A28        2.08529   0.00272   0.00866   0.00722   0.01645   2.10174
   A29        3.14142  -0.00019   0.00565  -0.02701  -0.02136   3.12007
   A30        3.15652   0.00026   0.00797  -0.00579   0.00218   3.15870
   A31        3.14301  -0.00008   0.00029  -0.00651  -0.00622   3.13679
   A32        3.14117   0.00001  -0.00010   0.00054   0.00044   3.14161
    D1       -3.13968  -0.00002   0.00064  -0.00251  -0.00187  -3.14155
    D2        0.00154  -0.00002   0.00052  -0.00216  -0.00164  -0.00010
    D3       -0.00067   0.00000  -0.00025   0.00054   0.00029  -0.00037
    D4        3.14055   0.00000  -0.00037   0.00089   0.00052   3.14107
    D5       -0.00224   0.00001  -0.00069   0.00212   0.00143  -0.00081
    D6        3.13931   0.00001  -0.00075   0.00202   0.00127   3.14058
    D7       -3.14127  -0.00001   0.00019  -0.00092  -0.00072   3.14120
    D8        0.00027  -0.00001   0.00013  -0.00101  -0.00088  -0.00061
    D9        3.14072   0.00002  -0.00032   0.00171   0.00138  -3.14109
   D10        0.00014   0.00000  -0.00001   0.00005   0.00005   0.00018
   D11       -0.00050   0.00002  -0.00020   0.00136   0.00115   0.00065
   D12       -3.14108   0.00000   0.00012  -0.00030  -0.00018  -3.14127
   D13        0.00028  -0.00001   0.00009  -0.00059  -0.00051  -0.00022
   D14       -3.13971  -0.00002   0.00064  -0.00295  -0.00233   3.14114
   D15        3.14087   0.00001  -0.00022   0.00104   0.00083  -3.14149
   D16        0.00087  -0.00001   0.00032  -0.00131  -0.00100  -0.00012
   D17       -0.00104  -0.00001  -0.00028   0.00058   0.00029  -0.00074
   D18       -3.14097  -0.00002   0.00011  -0.00190  -0.00178   3.14044
   D19        3.13892   0.00002  -0.00085   0.00302   0.00215   3.14108
   D20       -0.00101   0.00000  -0.00045   0.00055   0.00008  -0.00093
   D21        0.00196   0.00000   0.00056  -0.00131  -0.00074   0.00121
   D22       -3.13959   0.00000   0.00063  -0.00121  -0.00056  -3.14014
   D23       -3.14121   0.00001   0.00019   0.00103   0.00123  -3.13999
   D24        0.00043   0.00001   0.00025   0.00113   0.00141   0.00184
   D25        3.13758  -0.00001  -0.00130   0.00309   0.00182   3.13940
   D26       -0.00389   0.00002  -0.00080   0.00255   0.00175  -0.00214
   D27       -0.00239  -0.00003  -0.00092   0.00066  -0.00021  -0.00259
   D28        3.13933   0.00000  -0.00042   0.00012  -0.00027   3.13906
   D29       -3.13781  -0.00004   0.00128  -0.00379  -0.00249  -3.14029
   D30        0.00374  -0.00004   0.00122  -0.00389  -0.00267   0.00106
   D31       -0.00636   0.00002  -0.00216   0.00499   0.00281  -0.00355
   D32        3.13976  -0.00001  -0.00067  -0.00077  -0.00149   3.13827
   D33        0.00479   0.00003   0.00164  -0.00339  -0.00176   0.00303
   D34       -3.13538   0.00002   0.00186  -0.00451  -0.00264  -3.13802
   D35       -3.14124   0.00007   0.00018   0.00231   0.00245  -3.13878
   D36        0.00178   0.00006   0.00040   0.00118   0.00157   0.00336
   D37        0.00001   0.00004   0.00006   0.00042   0.00049   0.00049
   D38        3.14148   0.00001  -0.00043   0.00095   0.00055  -3.14116
   D39        3.14021   0.00005  -0.00015   0.00151   0.00135   3.14156
   D40       -0.00150   0.00003  -0.00063   0.00204   0.00142  -0.00009
         Item               Value     Threshold  Converged?
 Maximum Force            0.021172     0.000450     NO 
 RMS     Force            0.004843     0.000300     NO 
 Maximum Displacement     0.144617     0.001800     NO 
 RMS     Displacement     0.021206     0.001200     NO 
 Predicted change in Energy=-3.430389D-03
 GradGradGradGradGradGradGradGradGradGradGradGradGradGradGradGradGradGrad

                          Input orientation:                          
 ---------------------------------------------------------------------
 Center     Atomic      Atomic             Coordinates (Angstroms)
 Number     Number       Type             X           Y           Z
 ---------------------------------------------------------------------
      1          7           0        1.157103   -0.232121   -0.007053
      2          6           0        2.357326   -0.200693   -0.011565
      3          6           0        4.592842   -1.306165   -0.012829
      4          6           0        3.816445   -0.131054   -0.011278
      5          6           0        4.475730    1.149407   -0.009206
      6          6           0        5.857861    1.214477   -0.009541
      7          6           0        6.662907    0.019016   -0.011661
      8          6           0        6.030203   -1.308163   -0.012594
      9          6           0        6.705546   -2.626178   -0.013029
     10          6           0        8.125196   -2.404177   -0.010928
     11          6           0        8.810593   -1.166427   -0.012739
     12          6           0        8.105153    0.062040   -0.013457
     13          7           0        9.439716    2.359123   -0.017903
     14          6           0        8.826434    1.325933   -0.015868
     15          1           0        4.087259   -2.284125   -0.013911
     16          1           0        3.870071    2.065960   -0.007682
     17          1           0        6.356949    2.193980   -0.008386
     18          1           0        8.796633   -3.282017   -0.007700
     19          1           0        9.912642   -1.118117   -0.014159
 ---------------------------------------------------------------------
                    Distance matrix (angstroms):
                    1          2          3          4          5
     1  N    0.000000
     2  C    1.200644   0.000000
     3  C    3.599710   2.493913   0.000000
     4  C    2.661265   1.460779   1.408432   0.000000
     5  C    3.594706   2.512053   2.458366   1.440223   0.000000
     6  C    4.918311   3.775772   2.820269   2.444962   1.383663
     7  C    5.511531   4.311183   2.457900   2.850415   2.462019
     8  C    4.990491   3.836211   1.437362   2.507252   2.907929
     9  C    6.042911   4.978955   2.491175   3.817401   4.384876
    10  C    7.298779   6.174436   3.699075   4.871594   5.093777
    11  C    7.710310   6.525128   4.220065   5.100344   4.914686
    12  C    6.954278   5.753829   3.769391   4.293053   3.788813
    13  N    8.678499   7.530800   6.076722   6.149976   5.109271
    14  C    7.825998   6.646800   4.985102   5.217549   4.354289
    15  H    3.577231   2.708018   1.100919   2.170037   3.455441
    16  H    3.555471   2.725092   3.448717   2.197671   1.098587
    17  H    5.737976   4.661700   3.919580   3.443828   2.151771
    18  H    8.225831   7.138575   4.644984   5.893289   6.189324
    19  H    8.800256   7.610813   5.323122   6.175591   5.890816
                    6          7          8          9         10
     6  C    0.000000
     7  C    1.441260   0.000000
     8  C    2.528521   1.470278   0.000000
     9  C    3.933092   2.645537   1.480963   0.000000
    10  C    4.270300   2.830221   2.364370   1.436904   0.000000
    11  C    3.793064   2.453127   2.784000   2.561658   1.414849
    12  C    2.525559   1.442889   2.486538   3.030744   2.466299
    13  N    3.760315   3.631365   5.007374   5.685854   4.941361
    14  C    2.970671   2.527627   3.841533   4.485237   3.795455
    15  H    3.921131   3.455203   2.174290   2.640536   4.039722
    16  H    2.162484   3.462647   4.006357   5.482344   6.171565
    17  H    1.099326   2.196381   3.517355   4.832749   4.926434
    18  H    5.371670   3.930601   3.398420   2.191529   1.105188
    19  H    4.677848   3.442943   3.887088   3.543968   2.202027
                   11         12         13         14         15
    11  C    0.000000
    12  C    1.416607   0.000000
    13  N    3.581247   2.656628   0.000000
    14  C    2.492412   1.455225   1.201500   0.000000
    15  H    4.853775   4.652737   7.085801   5.957542   0.000000
    16  H    5.903990   4.685258   5.577364   5.011311   4.355507
    17  H    4.160856   2.757066   3.087202   2.617617   5.020453
    18  H    2.115642   3.414805   5.677687   4.608054   4.813942
    19  H    1.103108   2.158654   3.509256   2.674553   5.940931
                   16         17         18         19
    16  H    0.000000
    17  H    2.490171   0.000000
    18  H    7.271304   5.994882   0.000000
    19  H    6.830157   4.859318   2.434744   0.000000
 Stoichiometry    C12H5N2(1-)
 Framework group  C1[X(C12H5N2)]
 Deg. of freedom    51
 Full point group                 C1      NOp   1
 Largest Abelian subgroup         C1      NOp   1
 Largest concise Abelian subgroup C1      NOp   1
                         Standard orientation:                         
 ---------------------------------------------------------------------
 Center     Atomic      Atomic             Coordinates (Angstroms)
 Number     Number       Type             X           Y           Z
 ---------------------------------------------------------------------
      1          7           0        4.917486   -0.257569    0.001240
      2          6           0        3.717359   -0.222545   -0.002353
      3          6           0        1.546430    1.004921   -0.002259
      4          6           0        2.256623   -0.211346   -0.000938
      5          6           0        1.527504   -1.453369    0.002023
      6          6           0        0.143890   -1.441868    0.002755
      7          6           0       -0.593782   -0.203697    0.000881
      8          6           0        0.111382    1.086442   -0.000935
      9          6           0       -0.490004    2.439804   -0.001259
     10          6           0       -1.919760    2.296690    0.001985
     11          6           0       -2.672590    1.098757    0.001071
     12          6           0       -2.036200   -0.166858    0.000192
     13          7           0       -3.495815   -2.386586   -0.002544
     14          6           0       -2.826306   -1.388909   -0.001288
     15          1           0        2.105347    1.953409   -0.004022
     16          1           0        2.081525   -2.402027    0.003366
     17          1           0       -0.408626   -2.392257    0.004586
     18          1           0       -2.541597    3.210336    0.005455
     19          1           0       -3.775625    1.111495    0.000500
 ---------------------------------------------------------------------
 Rotational constants (GHZ):      1.4099327      0.4567465      0.3449882
 Standard basis: STO-3G (5D, 7F)
 There are    75 symmetry adapted cartesian basis functions of A   symmetry.
 There are    75 symmetry adapted basis functions of A   symmetry.
    75 basis functions,   225 primitive gaussians,    75 cartesian basis functions
    46 alpha electrons       46 beta electrons
       nuclear repulsion energy       691.9598521116 Hartrees.
 NAtoms=   19 NActive=   19 NUniq=   19 SFac= 1.00D+00 NAtFMM=   60 NAOKFM=F Big=F
 Integral buffers will be    131072 words long.
 Raffenetti 2 integral format.
 Two-electron integral symmetry is turned on.
 One-electron integrals computed using PRISM.
 NBasis=    75 RedAO= T EigKep=  1.76D-01  NBF=    75
 NBsUse=    75 1.00D-06 EigRej= -1.00D+00 NBFU=    75
 Initial guess from the checkpoint file:  "/tmp/bnp.472635.sequoia/Gau-29373.chk"
 B after Tr=     0.000000    0.000000    0.000000
         Rot=    0.999999   -0.000004    0.000000    0.001109 Ang=  -0.13 deg.
 ExpMin= 1.69D-01 ExpMax= 9.91D+01 ExpMxC= 9.91D+01 IAcc=1 IRadAn=         1 AccDes= 0.00D+00
 Harris functional with IExCor=  402 and IRadAn=       1 diagonalized for initial guess.
 HarFok:  IExCor=  402 AccDes= 0.00D+00 IRadAn=         1 IDoV= 1 UseB2=F ITyADJ=14
 ICtDFT=  3500011 ScaDFX=  1.000000  1.000000  1.000000  1.000000
 FoFCou: FMM=F IPFlag=           0 FMFlag=      100000 FMFlg1=           0
         NFxFlg=           0 DoJE=T BraDBF=F KetDBF=T FulRan=T
         wScrn=  0.000000 ICntrl=     500 IOpCl=  0 I1Cent=   200000004 NGrid=           0
         NMat0=    1 NMatS0=      1 NMatT0=    0 NMatD0=    1 NMtDS0=    0 NMtDT0=    0
 Petite list used in FoFCou.
 Keep R1 ints in memory in canonical form, NReq=4993994.
 Requested convergence on RMS density matrix=1.00D-08 within 128 cycles.
 Requested convergence on MAX density matrix=1.00D-06.
 Requested convergence on             energy=1.00D-06.
 No special actions if energy rises.
 Integral accuracy reduced to 1.0D-05 until final iterations.
 Initial convergence to 1.0D-05 achieved.  Increase integral accuracy.
 SCF Done:  E(RB3LYP) =  -562.518047369     A.U. after   15 cycles
            NFock= 15  Conv=0.42D-08     -V/T= 2.0140
 Calling FoFJK, ICntrl=      2127 FMM=F ISym2X=0 I1Cent= 0 IOpClX= 0 NMat=1 NMatS=1 NMatT=0.
 ***** Axes restored to original set *****
 -------------------------------------------------------------------
 Center     Atomic                   Forces (Hartrees/Bohr)
 Number     Number              X              Y              Z
 -------------------------------------------------------------------
      1        7           0.001509487   -0.000691564   -0.000176432
      2        6          -0.000738897    0.001845609    0.000341320
      3        6          -0.001562421   -0.000310309   -0.000020120
      4        6          -0.000700695   -0.003295648   -0.000121038
      5        6           0.000017850    0.002218116   -0.000041354
      6        6          -0.001374096   -0.000000310   -0.000011860
      7        6          -0.000397049   -0.004099374   -0.000032537
      8        6          -0.002508628    0.010091812   -0.000012531
      9        6           0.000291195   -0.004204093    0.000068957
     10        6           0.007003702    0.000093322    0.000071515
     11        6          -0.001407841   -0.000064609   -0.000019958
     12        6           0.001113456    0.002263360   -0.000004254
     13        7          -0.000693150   -0.001007023    0.000002247
     14        6          -0.000051193    0.000030554    0.000018633
     15        1           0.000175802    0.000248848   -0.000010127
     16        1           0.000154826   -0.000495420   -0.000000532
     17        1           0.000498286   -0.000487807    0.000013105
     18        1          -0.000631706   -0.000817217   -0.000093981
     19        1          -0.000698928   -0.001318246    0.000028948
 -------------------------------------------------------------------
 Cartesian Forces:  Max     0.010091812 RMS     0.002023989

 GradGradGradGradGradGradGradGradGradGradGradGradGradGradGradGradGradGrad
 Berny optimization.
 Using GEDIIS/GDIIS optimizer.
 FormGI is forming the generalized inverse of G from B-inverse, IUseBI=4.
 Internal  Forces:  Max     0.006080580 RMS     0.001084303
 Search for a local minimum.
 Step number   3 out of a maximum of  102
 All quantities printed in internal units (Hartrees-Bohrs-Radians)
 Mixed Optimization -- RFO/linear search
 Update second derivatives using D2CorX and points    1    2    3
 DE= -3.72D-03 DEPred=-3.43D-03 R= 1.08D+00
 TightC=F SS=  1.41D+00  RLast= 1.82D-01 DXNew= 8.4853D-01 5.4620D-01
 Trust test= 1.08D+00 RLast= 1.82D-01 DXMaxT set to 5.46D-01
 ITU=  1  1  0
 Use linear search instead of GDIIS.
     Eigenvalues ---    0.01640   0.01654   0.01887   0.01897   0.01939
     Eigenvalues ---    0.01963   0.02015   0.02045   0.02054   0.02077
     Eigenvalues ---    0.02124   0.02127   0.02131   0.02144   0.02176
     Eigenvalues ---    0.02202   0.04853   0.04861   0.15609   0.16000
     Eigenvalues ---    0.16000   0.16015   0.16230   0.21801   0.22636
     Eigenvalues ---    0.23098   0.23616   0.24732   0.24923   0.25004
     Eigenvalues ---    0.25201   0.34781   0.34847   0.34907   0.34994
     Eigenvalues ---    0.35142   0.37982   0.39062   0.40326   0.40698
     Eigenvalues ---    0.41147   0.41598   0.43426   0.44394   0.45369
     Eigenvalues ---    0.45617   0.46174   0.46435   0.50774   1.27351
     Eigenvalues ---    1.34962
 RFO step:  Lambda=-4.41030638D-04 EMin= 1.64025782D-02
 Quartic linear search produced a step of -0.01478.
 Iteration  1 RMS(Cart)=  0.01950480 RMS(Int)=  0.00098979
 Iteration  2 RMS(Cart)=  0.00100124 RMS(Int)=  0.00000353
 Iteration  3 RMS(Cart)=  0.00000124 RMS(Int)=  0.00000344
 Iteration  4 RMS(Cart)=  0.00000000 RMS(Int)=  0.00000344
 Variable       Old X    -DE/DX   Delta X   Delta X   Delta X     New X
                                 (Linear)    (Quad)   (Total)
    R1        2.26889  -0.00149  -0.00018   0.00019   0.00001   2.26890
    R2        2.76047  -0.00082  -0.00013  -0.00102  -0.00116   2.75932
    R3        2.66155  -0.00093   0.00012  -0.00194  -0.00182   2.65973
    R4        2.71622   0.00099  -0.00020   0.00339   0.00318   2.71940
    R5        2.08043  -0.00030  -0.00009  -0.00035  -0.00044   2.07999
    R6        2.72163   0.00129  -0.00029   0.00479   0.00451   2.72613
    R7        2.61474   0.00013   0.00019  -0.00048  -0.00028   2.61446
    R8        2.07603  -0.00050  -0.00006  -0.00100  -0.00107   2.07496
    R9        2.72359   0.00054  -0.00014   0.00202   0.00188   2.72546
   R10        2.07742  -0.00021  -0.00002  -0.00030  -0.00033   2.07710
   R11        2.77842  -0.00385  -0.00016  -0.00757  -0.00774   2.77068
   R12        2.72666   0.00129  -0.00018   0.00361   0.00344   2.73010
   R13        2.79862   0.00608  -0.00088   0.01746   0.01657   2.81519
   R14        2.71536   0.00318  -0.00056   0.00953   0.00896   2.72432
   R15        2.67368  -0.00150   0.00005  -0.00260  -0.00255   2.67113
   R16        2.08850   0.00027  -0.00011   0.00146   0.00135   2.08985
   R17        2.67700   0.00162  -0.00002   0.00368   0.00366   2.68066
   R18        2.08457  -0.00076  -0.00004  -0.00169  -0.00173   2.08284
   R19        2.74998  -0.00122  -0.00011  -0.00221  -0.00232   2.74766
   R20        2.27051  -0.00122  -0.00018   0.00040   0.00022   2.27073
    A1        2.15605  -0.00056  -0.00036  -0.00071  -0.00107   2.15498
    A2        2.08059   0.00032   0.00006   0.00121   0.00127   2.08186
    A3        2.04654   0.00024   0.00030  -0.00050  -0.00020   2.04635
    A4        2.10697   0.00090  -0.00003   0.00320   0.00317   2.11014
    A5        2.09397  -0.00053  -0.00003  -0.00236  -0.00239   2.09158
    A6        2.08225  -0.00036   0.00006  -0.00084  -0.00078   2.08147
    A7        2.09332  -0.00052   0.00012  -0.00197  -0.00185   2.09147
    A8        2.08218   0.00011   0.00021  -0.00098  -0.00077   2.08141
    A9        2.10768   0.00041  -0.00033   0.00295   0.00262   2.11030
   A10        2.11641   0.00063  -0.00006   0.00266   0.00260   2.11902
   A11        2.08908   0.00038  -0.00032   0.00431   0.00398   2.09307
   A12        2.07769  -0.00100   0.00039  -0.00697  -0.00659   2.07110
   A13        2.10407  -0.00079  -0.00024  -0.00217  -0.00241   2.10166
   A14        2.13364  -0.00002   0.00013   0.00021   0.00033   2.13397
   A15        2.04548   0.00081   0.00010   0.00197   0.00208   2.04755
   A16        2.01426   0.00160   0.00048   0.00303   0.00352   2.01778
   A17        2.04570  -0.00010   0.00036  -0.00156  -0.00120   2.04450
   A18        2.22322  -0.00149  -0.00084  -0.00147  -0.00232   2.22090
   A19        1.88919   0.00132   0.00145  -0.00015   0.00129   1.89047
   A20        2.23163  -0.00212  -0.00093  -0.00419  -0.00513   2.22650
   A21        2.06863   0.00002   0.00012  -0.00269  -0.00257   2.06606
   A22        1.98293   0.00210   0.00081   0.00689   0.00769   1.99062
   A23        2.11461   0.00097  -0.00004   0.00432   0.00429   2.11890
   A24        2.12032  -0.00183  -0.00015  -0.00927  -0.00943   2.11089
   A25        2.04825   0.00086   0.00020   0.00495   0.00514   2.05339
   A26        2.06224   0.00052   0.00026  -0.00047  -0.00020   2.06204
   A27        2.11920  -0.00057  -0.00001  -0.00156  -0.00158   2.11762
   A28        2.10174   0.00005  -0.00024   0.00202   0.00177   2.10352
   A29        3.12007   0.00166   0.00032   0.09607   0.09639   3.21646
   A30        3.15870  -0.00018  -0.00003  -0.00306  -0.00309   3.15561
   A31        3.13679   0.00031   0.00009   0.01779   0.01788   3.15467
   A32        3.14161   0.00000  -0.00001   0.00001   0.00001   3.14162
    D1       -3.14155   0.00002   0.00003   0.00081   0.00084  -3.14071
    D2       -0.00010   0.00002   0.00002   0.00072   0.00074   0.00064
    D3       -0.00037   0.00001   0.00000   0.00051   0.00051   0.00013
    D4        3.14107   0.00001  -0.00001   0.00042   0.00041   3.14148
    D5       -0.00081   0.00000  -0.00002  -0.00015  -0.00017  -0.00098
    D6        3.14058  -0.00001  -0.00002  -0.00038  -0.00040   3.14018
    D7        3.14120   0.00000   0.00001   0.00014   0.00015   3.14135
    D8       -0.00061   0.00000   0.00001  -0.00009  -0.00008  -0.00068
    D9       -3.14109  -0.00002  -0.00002  -0.00094  -0.00096   3.14114
   D10        0.00018   0.00000   0.00000  -0.00018  -0.00018   0.00000
   D11        0.00065  -0.00002  -0.00002  -0.00085  -0.00086  -0.00021
   D12       -3.14127   0.00000   0.00000  -0.00009  -0.00009  -3.14135
   D13       -0.00022   0.00001   0.00001   0.00042   0.00043   0.00020
   D14        3.14114   0.00002   0.00003   0.00085   0.00089  -3.14116
   D15       -3.14149  -0.00001  -0.00001  -0.00035  -0.00036   3.14134
   D16       -0.00012   0.00000   0.00001   0.00008   0.00010  -0.00002
   D17       -0.00074   0.00000   0.00000   0.00016   0.00015  -0.00059
   D18        3.14044   0.00001   0.00003   0.00051   0.00053   3.14097
   D19        3.14108  -0.00001  -0.00003  -0.00027  -0.00030   3.14078
[...]
 ! D14   D(4,5,6,17)          -179.9981         -DE/DX =    0.0                 !
 ! D15   D(16,5,6,7)           179.9975         -DE/DX =    0.0                 !
 ! D16   D(16,5,6,17)           -0.0007         -DE/DX =    0.0                 !
 ! D17   D(5,6,7,8)             -0.0094         -DE/DX =    0.0                 !
 ! D18   D(5,6,7,12)           179.9893         -DE/DX =    0.0                 !
 ! D19   D(17,6,7,8)           179.9887         -DE/DX =    0.0                 !
 ! D20   D(17,6,7,12)           -0.0125         -DE/DX =    0.0                 !
 ! D21   D(6,7,8,3)              0.0143         -DE/DX =    0.0                 !
 ! D22   D(6,7,8,9)           -179.9748         -DE/DX =    0.0                 !
 ! D23   D(12,7,8,3)          -179.9845         -DE/DX =    0.0                 !
 ! D24   D(12,7,8,9)             0.0263         -DE/DX =    0.0                 !
 ! D25   D(6,7,12,11)          179.9729         -DE/DX =    0.0                 !
 ! D26   D(6,7,12,14)           -0.0288         -DE/DX =    0.0                 !
 ! D27   D(8,7,12,11)           -0.0283         -DE/DX =    0.0                 !
 ! D28   D(8,7,12,14)          179.97           -DE/DX =    0.0                 !
 ! D29   D(3,8,9,10)          -179.9829         -DE/DX =    0.0                 !
 ! D30   D(7,8,9,10)             0.0062         -DE/DX =    0.0                 !
 ! D31   D(8,9,10,11)           -0.0401         -DE/DX =    0.0                 !
 ! D32   D(8,9,10,18)          179.9919         -DE/DX =    0.0                 !
 ! D33   D(9,10,11,12)           0.0405         -DE/DX =    0.0                 !
 ! D34   D(9,10,11,19)        -179.9485         -DE/DX =    0.0                 !
 ! D35   D(18,10,11,12)       -179.9905         -DE/DX =    0.0                 !
 ! D36   D(18,10,11,19)          0.0205         -DE/DX =    0.0                 !
 ! D37   D(10,11,12,7)          -0.0011         -DE/DX =    0.0                 !
 ! D38   D(10,11,12,14)        180.0006         -DE/DX =    0.0                 !
 ! D39   D(19,11,12,7)         179.9882         -DE/DX =    0.0                 !
 ! D40   D(19,11,12,14)         -0.0101         -DE/DX =    0.0                 !
 --------------------------------------------------------------------------------
 GradGradGradGradGradGradGradGradGradGradGradGradGradGradGradGradGradGrad

                          Input orientation:                          
 ---------------------------------------------------------------------
 Center     Atomic      Atomic             Coordinates (Angstroms)
 Number     Number       Type             X           Y           Z
 ---------------------------------------------------------------------
      1          7           0        1.156681   -0.241706   -0.008959
      2          6           0        2.355746   -0.193989   -0.009587
      3          6           0        4.590084   -1.303377   -0.010969
      4          6           0        3.813816   -0.129718   -0.010333
      5          6           0        4.475080    1.152763   -0.010407
      6          6           0        5.856632    1.215165   -0.011175
      7          6           0        6.663005    0.018398   -0.011914
      8          6           0        6.028007   -1.298718   -0.011656
      9          6           0        6.708177   -2.627507   -0.011801
     10          6           0        8.133504   -2.406076   -0.012102
     11          6           0        8.811758   -1.167358   -0.013027
     12          6           0        8.106740    0.062788   -0.012949
     13          7           0        9.431965    2.361836   -0.014736
     14          6           0        8.824275    1.325841   -0.013924
     15          1           0        4.088453   -2.282844   -0.010818
     16          1           0        3.869311    2.068439   -0.009807
     17          1           0        6.361613    2.191414   -0.011201
     18          1           0        8.798449   -3.288522   -0.012106
     19          1           0        9.913315   -1.126129   -0.014020
 ---------------------------------------------------------------------
                    Distance matrix (angstroms):
                    1          2          3          4          5
     1  N    0.000000
     2  C    1.200014   0.000000
     3  C    3.593801   2.494596   0.000000
     4  C    2.659495   1.459486   1.407148   0.000000
     5  C    3.599489   2.511039   2.458830   1.442923   0.000000
     6  C    4.920571   3.773847   2.819077   2.445773   1.382960
     7  C    5.512465   4.312492   2.458473   2.853036   2.464508
     8  C    4.984686   3.834831   1.437930   2.503837   2.901954
     9  C    6.042447   4.986549   2.497927   3.823124   4.390576
    10  C    7.304832   6.186746   3.711034   4.882777   5.103861
    11  C    7.710840   6.528977   4.223865   5.104520   4.918306
    12  C    6.956727   5.756724   3.772702   4.297238   3.791701
    13  N    8.675183   7.523639   6.072694   6.145849   5.102213
    14  C    7.826189   6.644680   4.984092   5.217601   4.352639
    15  H    3.572329   2.713962   1.100450   2.170571   3.457293
    16  H    3.563023   2.722032   3.447993   2.198857   1.097917
    17  H    5.745554   4.662308   3.918147   3.446581   2.153556
    18  H    8.226768   7.147346   4.653078   5.901238   6.198107
    19  H    8.801186   7.614838   5.326182   6.180350   5.896419
                    6          7          8          9         10
     6  C    0.000000
     7  C    1.443083   0.000000
     8  C    2.519718   1.462196   0.000000
     9  C    3.935893   2.646290   1.492753   0.000000
    10  C    4.277562   2.835567   2.378941   1.442424   0.000000
    11  C    3.795943   2.454212   2.786849   2.560681   1.412251
    12  C    2.528035   1.444417   2.484921   3.032105   2.469010
    13  N    3.754713   3.627513   4.998660   5.684415   4.941559
    14  C    2.969708   2.525966   3.835027   4.484064   3.795310
    15  H    3.919506   3.453119   2.174942   2.642300   4.046927
    16  H    2.162759   3.465170   3.999715   5.487356   6.180990
    17  H    1.099121   2.193818   3.506039   4.831366   4.927120
    18  H    5.379357   3.936476   3.410963   2.192299   1.104926
    19  H    4.683838   3.445934   3.889141   3.539357   2.192258
                   11         12         13         14         15
    11  C    0.000000
    12  C    1.417854   0.000000
    13  N    3.583277   2.653648   0.000000
    14  C    2.493230   1.452639   1.201072   0.000000
    15  H    4.853238   4.652808   7.079985   5.954043   0.000000
    16  H    5.907468   4.688118   5.570389   5.010304   4.356798
    17  H    4.157470   2.752547   3.075080   2.610350   5.018589
    18  H    2.121207   3.421950   5.685763   4.614436   4.816165
    19  H    1.102329   2.162693   3.521023   2.682939   5.938604
                   16         17         18         19
    16  H    0.000000
    17  H    2.495335   0.000000
    18  H    7.279659   5.997322   0.000000
    19  H    6.836320   4.860111   2.432874   0.000000
 Stoichiometry    C12H5N2(1-)
 Framework group  C1[X(C12H5N2)]
 Deg. of freedom    51
 Full point group                 C1      NOp   1
 Largest Abelian subgroup         C1      NOp   1
 Largest concise Abelian subgroup C1      NOp   1
                         Standard orientation:                         
 ---------------------------------------------------------------------
 Center     Atomic      Atomic             Coordinates (Angstroms)
 Number     Number       Type             X           Y           Z
 ---------------------------------------------------------------------
      1          7           0        4.918112   -0.244430   -0.000264
      2          6           0        3.718232   -0.226442   -0.000158
      3          6           0        1.547968    1.003584   -0.000378
      4          6           0        2.258829   -0.210806   -0.000011
      5          6           0        1.528357   -1.455168    0.000537
      6          6           0        0.145461   -1.441854    0.000616
      7          6           0       -0.594195   -0.202742    0.000159
      8          6           0        0.111946    1.077640   -0.000194
      9          6           0       -0.494470    2.441668   -0.000157
     10          6           0       -1.929780    2.298588    0.000444
     11          6           0       -2.674822    1.098852    0.000143
     12          6           0       -2.038196   -0.168040    0.000006
     13          7           0       -3.487279   -2.391102   -0.000583
     14          6           0       -2.823792   -1.389924   -0.000318
     15          1           0        2.102460    1.954125   -0.000700
     16          1           0        2.083097   -2.402630    0.000928
     17          1           0       -0.412200   -2.388998    0.001064
     18          1           0       -2.545425    3.216109    0.000690
     19          1           0       -3.776985    1.117981   -0.000177
 ---------------------------------------------------------------------
 Rotational constants (GHZ):      1.4086781      0.4566786      0.3448741

 **********************************************************************

            Population analysis using the SCF density.

 **********************************************************************

 Orbital symmetries:
       Occupied  (A) (A) (A) (A) (A) (A) (A) (A) (A) (A) (A) (A)
                 (A) (A) (A) (A) (A) (A) (A) (A) (A) (A) (A) (A)
                 (A) (A) (A) (A) (A) (A) (A) (A) (A) (A) (A) (A)
                 (A) (A) (A) (A) (A) (A) (A) (A) (A) (A)
       Virtual   (A) (A) (A) (A) (A) (A) (A) (A) (A) (A) (A) (A)
                 (A) (A) (A) (A) (A) (A) (A) (A) (A) (A) (A) (A)
                 (A) (A) (A) (A) (A)
 The electronic state is 1-A.
 Alpha  occ. eigenvalues --  -13.99006 -13.96421  -9.90015  -9.89580  -9.88105
 Alpha  occ. eigenvalues --   -9.87395  -9.87290  -9.87054  -9.86916  -9.86762
 Alpha  occ. eigenvalues --   -9.85425  -9.83221  -9.79604  -9.67720  -0.72635
 Alpha  occ. eigenvalues --   -0.70658  -0.66992  -0.62260  -0.57377  -0.54731
 Alpha  occ. eigenvalues --   -0.51731  -0.44211  -0.42489  -0.39964  -0.35396
 Alpha  occ. eigenvalues --   -0.32758  -0.30857  -0.26012  -0.25247  -0.23233
 Alpha  occ. eigenvalues --   -0.20703  -0.20448  -0.19634  -0.17686  -0.17263
 Alpha  occ. eigenvalues --   -0.15400  -0.13920  -0.13873  -0.13238  -0.12185
 Alpha  occ. eigenvalues --   -0.09841  -0.09223  -0.06884  -0.03446   0.01859
 Alpha  occ. eigenvalues --    0.10504
 Alpha virt. eigenvalues --    0.18099   0.19876   0.24656   0.25735   0.27544
 Alpha virt. eigenvalues --    0.29267   0.35111   0.37323   0.43252   0.45630
 Alpha virt. eigenvalues --    0.46208   0.51221   0.53566   0.54836   0.56013
 Alpha virt. eigenvalues --    0.59879   0.61755   0.62542   0.68008   0.68492
 Alpha virt. eigenvalues --    0.70681   0.74974   0.78130   0.81674   0.84273
 Alpha virt. eigenvalues --    0.90785   0.92864   1.06802   1.09098
          Condensed to atoms (all electrons):
               1          2          3          4          5          6
     1  N    6.594817   0.660172  -0.000097  -0.011065  -0.000077  -0.000001
     2  C    0.660172   4.935474  -0.028288   0.421238  -0.028800   0.000849
     3  C   -0.000097  -0.028288   4.840644   0.500699  -0.029247  -0.009799
     4  C   -0.011065   0.421238   0.500699   4.786477   0.460560  -0.029499
     5  C   -0.000077  -0.028800  -0.029247   0.460560   4.825397   0.532212
     6  C   -0.000001   0.000849  -0.009799  -0.029499   0.532212   4.834581
     7  C    0.000000   0.000008  -0.034091  -0.008881  -0.027428   0.462293
     8  C   -0.000001   0.000780   0.468939  -0.024989  -0.007888  -0.022774
     9  C    0.000000  -0.000005  -0.034221   0.000742   0.000015   0.000549
    10  C    0.000000   0.000000   0.001379  -0.000014   0.000001   0.000045
    11  C    0.000000   0.000000   0.000011   0.000000  -0.000007   0.000723
    12  C    0.000000   0.000000   0.000876   0.000036   0.000766  -0.028902
    13  N    0.000000   0.000000   0.000000   0.000000   0.000000  -0.000108
    14  C    0.000000   0.000000  -0.000007   0.000000   0.000017  -0.004337
    15  H    0.000060  -0.003418   0.383568  -0.026270   0.001294   0.000030
    16  H    0.000058  -0.002981   0.001216  -0.024810   0.387279  -0.024991
    17  H    0.000000  -0.000017   0.000009   0.001395  -0.026195   0.385099
    18  H    0.000000   0.000000  -0.000016   0.000000   0.000000   0.000001
    19  H    0.000000   0.000000   0.000001   0.000000   0.000000  -0.000016
               7          8          9         10         11         12
     1  N    0.000000  -0.000001   0.000000   0.000000   0.000000   0.000000
     2  C    0.000008   0.000780  -0.000005   0.000000   0.000000   0.000000
     3  C   -0.034091   0.468939  -0.034221   0.001379   0.000011   0.000876
     4  C   -0.008881  -0.024989   0.000742  -0.000014   0.000000   0.000036
     5  C   -0.027428  -0.007888   0.000015   0.000001  -0.000007   0.000766
     6  C    0.462293  -0.022774   0.000549   0.000045   0.000723  -0.028902
     7  C    4.818518   0.441783  -0.016816  -0.011109  -0.028917   0.463708
     8  C    0.441783   4.904018   0.383890  -0.029689  -0.012887  -0.030040
     9  C   -0.016816   0.383890   5.488559   0.432542  -0.017482  -0.005841
    10  C   -0.011109  -0.029689   0.432542   4.939991   0.486240  -0.029817
    11  C   -0.028917  -0.012887  -0.017482   0.486240   4.851025   0.488670
    12  C    0.463708  -0.030040  -0.005841  -0.029817   0.488670   4.816162
    13  N   -0.000011  -0.000001   0.000000  -0.000001  -0.000119  -0.011446
    14  C   -0.027303   0.000709  -0.000004   0.000791  -0.028954   0.427432
    15  H    0.001424  -0.025090  -0.001585   0.000034   0.000001  -0.000016
    16  H    0.001353   0.000023   0.000000   0.000000   0.000000  -0.000016
    17  H   -0.024482   0.001098  -0.000012  -0.000002   0.000019  -0.003568
    18  H    0.000000   0.002199  -0.031828   0.380882  -0.035911   0.001467
    19  H    0.001311   0.000093   0.001075  -0.023222   0.380528  -0.027772
              13         14         15         16         17         18
     1  N    0.000000   0.000000   0.000060   0.000058   0.000000   0.000000
     2  C    0.000000   0.000000  -0.003418  -0.002981  -0.000017   0.000000
     3  C    0.000000  -0.000007   0.383568   0.001216   0.000009  -0.000016
     4  C    0.000000   0.000000  -0.026270  -0.024810   0.001395   0.000000
     5  C    0.000000   0.000017   0.001294   0.387279  -0.026195   0.000000
     6  C   -0.000108  -0.004337   0.000030  -0.024991   0.385099   0.000001
     7  C   -0.000011  -0.027303   0.001424   0.001353  -0.024482   0.000000
     8  C   -0.000001   0.000709  -0.025090   0.000023   0.001098   0.002199
     9  C    0.000000  -0.000004  -0.001585   0.000000  -0.000012  -0.031828
    10  C   -0.000001   0.000791   0.000034   0.000000  -0.000002   0.380882
    11  C   -0.000119  -0.028954   0.000001   0.000000   0.000019  -0.035911
    12  C   -0.011446   0.427432  -0.000016  -0.000016  -0.003568   0.001467
    13  N    6.617380   0.656850   0.000000   0.000000  -0.000110   0.000000
    14  C    0.656850   4.941455   0.000000   0.000000   0.001667  -0.000020
    15  H    0.000000   0.000000   0.593343  -0.000034   0.000002  -0.000003
    16  H    0.000000   0.000000  -0.000034   0.605007  -0.003858   0.000000
    17  H   -0.000110   0.001667   0.000002  -0.003858   0.603171   0.000000
    18  H    0.000000  -0.000020  -0.000003   0.000000   0.000000   0.668337
    19  H    0.000067  -0.003539   0.000000   0.000000  -0.000002  -0.003984
              19
     1  N    0.000000
     2  C    0.000000
     3  C    0.000001
     4  C    0.000000
     5  C    0.000000
     6  C   -0.000016
     7  C    0.001311
     8  C    0.000093
     9  C    0.001075
    10  C   -0.023222
    11  C    0.380528
    12  C   -0.027772
    13  N    0.000067
    14  C   -0.003539
    15  H    0.000000
    16  H    0.000000
    17  H   -0.000002
    18  H   -0.003984
    19  H    0.627550
 Mulliken charges:
               1
     1  N   -0.243866
     2  C    0.044989
     3  C   -0.061577
     4  C   -0.045618
     5  C   -0.087899
     6  C   -0.095955
     7  C   -0.011360
     8  C   -0.050175
     9  C   -0.199578
    10  C   -0.148050
    11  C   -0.082941
    12  C   -0.061698
    13  N   -0.262502
    14  C    0.035243
    15  H    0.076660
    16  H    0.061753
    17  H    0.065788
    18  H    0.018876
    19  H    0.047910
 Sum of Mulliken charges =  -1.00000
 Mulliken charges with hydrogens summed into heavy atoms:
               1
     1  N   -0.243866
     2  C    0.044989
     3  C    0.015083
     4  C   -0.045618
     5  C   -0.026146
     6  C   -0.030166
     7  C   -0.011360
     8  C   -0.050175
     9  C   -0.199578
    10  C   -0.129174
    11  C   -0.035031
    12  C   -0.061698
    13  N   -0.262502
    14  C    0.035243
 Electronic spatial extent (au):  <R**2>=           2935.6338
 Charge=             -1.0000 electrons
 Dipole moment (field-independent basis, Debye):
    X=              0.0635    Y=             -2.0530    Z=              0.0015  Tot=              2.0539
 Quadrupole moment (field-independent basis, Debye-Ang):
   XX=           -122.8210   YY=            -97.6620   ZZ=            -74.1405
   XY=             -7.6527   XZ=              0.0000   YZ=             -0.0021
 Traceless Quadrupole moment (field-independent basis, Debye-Ang):
   XX=            -24.6132   YY=              0.5458   ZZ=             24.0674
   XY=             -7.6527   XZ=              0.0000   YZ=             -0.0021
 Octapole moment (field-independent basis, Debye-Ang**2):
  XXX=           -108.0842  YYY=            -35.2245  ZZZ=             -0.0029  XYY=             46.7641
  XXY=             50.6402  XXZ=              0.0174  XZZ=              1.7866  YZZ=             -2.2921
  YYZ=              0.0134  XYZ=              0.0089
 Hexadecapole moment (field-independent basis, Debye-Ang**3):
 XXXX=          -3846.5209 YYYY=          -1184.8997 ZZZZ=            -58.3387 XXXY=           -115.3130
 XXXZ=              0.0245 YYYX=            -66.7008 YYYZ=             -0.0076 ZZZX=              0.0026
 ZZZY=              0.0039 XXYY=           -738.6506 XXZZ=           -459.1839 YYZZ=           -175.6993
 XXYZ=             -0.0451 YYXZ=             -0.0213 ZZXY=              7.3005
 N-N= 6.917930952093D+02 E-N=-2.705714277528D+03  KE= 5.547557948206D+02
 1\1\GINC-N044\FOpt\RB3LYP\STO-3G\C12H5N2(1-)\R2532\15-Jun-2021\0\\#N B
 3LYP/STO-3G OPT\\2Naph\\-1,1\N,1.1566808445,-0.2417061732,-0.008958943
 8\C,2.3557460875,-0.1939889185,-0.0095868703\C,4.5900838395,-1.3033768
 665,-0.0109685994\C,3.8138164784,-0.1297179767,-0.0103332912\C,4.47508
 04511,1.1527625919,-0.0104070469\C,5.8566320357,1.2151650341,-0.011175
 3067\C,6.6630047235,0.0183976518,-0.0119138465\C,6.0280065187,-1.29871
 78489,-0.0116556517\C,6.708177334,-2.6275066005,-0.0118014778\C,8.1335
 039077,-2.4060764203,-0.0121017546\C,8.811757687,-1.1673575822,-0.0130
 269466\C,8.1067395005,0.0627881481,-0.0129489815\N,9.4319648446,2.3618
 364793,-0.01473605\C,8.8242752698,1.3258411351,-0.0139241201\H,4.08845
 33746,-2.282844063,-0.0108176849\H,3.8693105241,2.0684389162,-0.009806
 6365\H,6.3616130149,2.1914136106,-0.0112005284\H,8.7984485538,-3.28852
 23546,-0.0121059091\H,9.9133150101,-1.1261287627,-0.0140203541\\Versio
 n=ES64L-G09RevD.01\State=1-A\HF=-562.5182551\RMSD=6.954e-09\RMSF=1.610
 e-05\Dipole=-0.0691516,0.8051168,0.0004742\Quadrupole=-17.6212827,-0.2
 72192,17.8934747,-6.6778411,0.0225864,0.008733\PG=C01 [X(C12H5N2)]\\@


 YOU CANNOT THROW TO THE GROUND THE LETTERS OF
 THE GREEK ALPHABET AND PICK UP THE ILIAD.
        - RUFUS CHOATE, 1799-1859
 Job cpu time:       0 days  0 hours  4 minutes 17.2 seconds.
 File lengths (MBytes):  RWF=      5 Int=      0 D2E=      0 Chk=      2 Scr=      1
 Normal termination of Gaussian 09 at Tue Jun 15 11:13:14 2021.
