 Entering Gaussian System, Link 0=/usr/local/apps//g09/g09
 Input=15.com
 Output=15.out
 Initial command:
 /usr/local/apps//g09/l1.exe "/tmp/bnp.472697.sequoia/Gau-9092.inp" -scrdir="/tmp/bnp.472697.sequoia/"
 Entering Link 1 = /usr/local/apps//g09/l1.exe PID=      9093.
  
 Copyright (c) 1988,1990,1992,1993,1995,1998,2003,2009,2013,
            Gaussian, Inc.  All Rights Reserved.
  
 This is part of the Gaussian(R) 09 program.  It is based on
 the Gaussian(R) 03 system (copyright 2003, Gaussian, Inc.),
 the Gaussian(R) 98 system (copyright 1998, Gaussian, Inc.),
 the Gaussian(R) 94 system (copyright 1995, Gaussian, Inc.),
 the Gaussian 92(TM) system (copyright 1992, Gaussian, Inc.),
 the Gaussian 90(TM) system (copyright 1990, Gaussian, Inc.),
 the Gaussian 88(TM) system (copyright 1988, Gaussian, Inc.),
 the Gaussian 86(TM) system (copyright 1986, Carnegie Mellon
 University), and the Gaussian 82(TM) system (copyright 1983,
 Carnegie Mellon University). Gaussian is a federally registered
 trademark of Gaussian, Inc.
  
 This software contains proprietary and confidential information,
 including trade secrets, belonging to Gaussian, Inc.
  
 This software is provided under written license and may be
 used, copied, transmitted, or stored only in accord with that
 written license.
  
 The following legend is applicable only to US Government
 contracts under FAR:
  
                    RESTRICTED RIGHTS LEGEND
  
 Use, reproduction and disclosure by the US Government is
 subject to restrictions as set forth in subparagraphs (a)
 and (c) of the Commercial Computer Software - Restricted
 Rights clause in FAR 52.227-19.
  
 Gaussian, Inc.
 340 Quinnipiac St., Bldg. 40, Wallingford CT 06492
  
  
 ---------------------------------------------------------------
 Warning -- This program may not be used in any manner that
 competes with the business of Gaussian, Inc. or will provide
 assistance to any competitor of Gaussian, Inc.  The licensee
 of this program is prohibited from giving any competitor of
 Gaussian, Inc. access to this program.  By using this program,
 the user acknowledges that Gaussian, Inc. is engaged in the
 business of creating and licensing software in the field of
 computational chemistry and represents and warrants to the
 licensee that it is not a competitor of Gaussian, Inc. and that
 it will not use this program in any manner prohibited above.
 ---------------------------------------------------------------
  

 Cite this work as:
 Gaussian 09, Revision D.01,
 M. J. Frisch, G. W. Trucks, H. B. Schlegel, G. E. Scuseria, 
 M. A. Robb, J. R. Cheeseman, G. Scalmani, V. Barone, B. Mennucci, 
 G. A. Petersson, H. Nakatsuji, M. Caricato, X. Li, H. P. Hratchian, 
 A. F. Izmaylov, J. Bloino, G. Zheng, J. L. Sonnenberg, M. Hada, 
 M. Ehara, K. Toyota, R. Fukuda, J. Hasegawa, M. Ishida, T. Nakajima, 
 Y. Honda, O. Kitao, H. Nakai, T. Vreven, J. A. Montgomery, Jr., 
 J. E. Peralta, F. Ogliaro, M. Bearpark, J. J. Heyd, E. Brothers, 
 K. N. Kudin, V. N. Staroverov, T. Keith, R. Kobayashi, J. Normand, 
 K. Raghavachari, A. Rendell, J. C. Burant, S. S. Iyengar, J. Tomasi, 
 M. Cossi, N. Rega, J. M. Millam, M. Klene, J. E. Knox, J. B. Cross, 
 V. Bakken, C. Adamo, J. Jaramillo, R. Gomperts, R. E. Stratmann, 
 O. Yazyev, A. J. Austin, R. Cammi, C. Pomelli, J. W. Ochterski, 
 R. L. Martin, K. Morokuma, V. G. Zakrzewski, G. A. Voth, 
 P. Salvador, J. J. Dannenberg, S. Dapprich, A. D. Daniels, 
 O. Farkas, J. B. Foresman, J. V. Ortiz, J. Cioslowski, 
 and D. J. Fox, Gaussian, Inc., Wallingford CT, 2013.
 
 ******************************************
 Gaussian 09:  ES64L-G09RevD.01 24-Apr-2013
                15-Jun-2021 
 ******************************************
 -------------------
 #N B3LYP/STO-3G OPT
 -------------------
 1/14=-1,18=20,19=15,26=3,38=1/1,3;
 2/9=110,12=2,17=6,18=5,40=1/2;
 3/6=3,11=2,16=1,25=1,30=1,71=1,74=-5/1,2,3;
 4//1;
 5/5=2,38=5/2;
 6/7=2,8=2,9=2,10=2,28=1/1;
 7//1,2,3,16;
 1/14=-1,18=20,19=15,26=3/3(2);
 2/9=110/2;
 99//99;
 2/9=110/2;
 3/6=3,11=2,16=1,25=1,30=1,71=1,74=-5/1,2,3;
 4/5=5,16=3,69=1/1;
 5/5=2,38=5/2;
 7//1,2,3,16;
 1/14=-1,18=20,19=15,26=3/3(-5);
 2/9=110/2;
 6/7=2,8=2,9=2,10=2,19=2,28=1/1;
 99/9=1/99;
 -----
 1Naph
 -----
 Symbolic Z-matrix:
 Charge = -1 Multiplicity = 1
 N                     1.16496   0.09931   0.04597 
 C                     2.32557   0.06736   0.04609 
 C                     3.76837   0.03618   0.04638 
 C                     4.45334   1.26002   0.04646 
 C                     5.84809   1.29537   0.04666 
 C                     6.58367   0.10786   0.04631 
 C                     5.91845  -1.14327   0.04613 
 C                     4.49048  -1.18855   0.04615 
 C                     3.86527  -2.46336   0.0461 
 C                     4.60661  -3.644     0.0461 
 C                     5.98973  -3.59174   0.04607 
 C                     6.63581  -2.35897   0.04605 
 N                     9.18183   0.26574   0.04553 
 C                     8.0206    0.20507   0.04598 
 H                     3.90495   2.20055   0.04644 
 H                     6.36158   2.2564    0.04717 
 H                     2.78079  -2.57      0.04613 
 H                     6.57294  -4.50789   0.04611 
 H                     7.72536  -2.3667    0.04606 
 

 GradGradGradGradGradGradGradGradGradGradGradGradGradGradGradGradGradGrad
 Berny optimization.
 Initialization pass.
                           ----------------------------
                           !    Initial Parameters    !
                           ! (Angstroms and Degrees)  !
 --------------------------                            --------------------------
 ! Name  Definition              Value          Derivative Info.                !
 --------------------------------------------------------------------------------
 ! R1    R(1,2)                  1.161          estimate D2E/DX2                !
 ! R2    R(2,3)                  1.4431         estimate D2E/DX2                !
 ! R3    R(3,4)                  1.4025         estimate D2E/DX2                !
 ! R4    R(3,8)                  1.4218         estimate D2E/DX2                !
 ! R5    R(4,5)                  1.3952         estimate D2E/DX2                !
 ! R6    R(4,15)                 1.0887         estimate D2E/DX2                !
 ! R7    R(5,6)                  1.3969         estimate D2E/DX2                !
 ! R8    R(5,16)                 1.0896         estimate D2E/DX2                !
 ! R9    R(6,7)                  1.417          estimate D2E/DX2                !
 ! R10   R(6,14)                 1.4402         estimate D2E/DX2                !
 ! R11   R(7,8)                  1.4287         estimate D2E/DX2                !
 ! R12   R(7,12)                 1.4116         estimate D2E/DX2                !
 ! R13   R(8,9)                  1.4199         estimate D2E/DX2                !
 ! R14   R(9,10)                 1.3941         estimate D2E/DX2                !
 ! R15   R(9,17)                 1.0897         estimate D2E/DX2                !
 ! R16   R(10,11)                1.3841         estimate D2E/DX2                !
 ! R17   R(11,12)                1.3918         estimate D2E/DX2                !
 ! R18   R(11,18)                1.086          estimate D2E/DX2                !
 ! R19   R(12,19)                1.0896         estimate D2E/DX2                !
 ! R20   R(13,14)                1.1628         estimate D2E/DX2                !
 ! A1    A(2,3,4)              117.9973         estimate D2E/DX2                !
 ! A2    A(2,3,8)              121.7619         estimate D2E/DX2                !
 ! A3    A(4,3,8)              120.2408         estimate D2E/DX2                !
 ! A4    A(3,4,5)              120.6871         estimate D2E/DX2                !
 ! A5    A(3,4,15)             120.5198         estimate D2E/DX2                !
 ! A6    A(5,4,15)             118.7931         estimate D2E/DX2                !
 ! A7    A(4,5,6)              120.3235         estimate D2E/DX2                !
 ! A8    A(4,5,16)             119.568          estimate D2E/DX2                !
 ! A9    A(6,5,16)             120.1085         estimate D2E/DX2                !
 ! A10   A(5,6,7)              120.2253         estimate D2E/DX2                !
 ! A11   A(5,6,14)             117.9051         estimate D2E/DX2                !
 ! A12   A(7,6,14)             121.8696         estimate D2E/DX2                !
 ! A13   A(6,7,8)              119.8156         estimate D2E/DX2                !
 ! A14   A(6,7,12)             121.4566         estimate D2E/DX2                !
 ! A15   A(8,7,12)             118.7278         estimate D2E/DX2                !
 ! A16   A(3,8,7)              118.7077         estimate D2E/DX2                !
 ! A17   A(3,8,9)              123.3512         estimate D2E/DX2                !
 ! A18   A(7,8,9)              117.9411         estimate D2E/DX2                !
 ! A19   A(8,9,10)             121.7498         estimate D2E/DX2                !
 ! A20   A(8,9,17)             121.7409         estimate D2E/DX2                !
 ! A21   A(10,9,17)            116.5093         estimate D2E/DX2                !
 ! A22   A(9,10,11)            119.9614         estimate D2E/DX2                !
 ! A23   A(10,11,12)           119.8223         estimate D2E/DX2                !
 ! A24   A(10,11,18)           120.3165         estimate D2E/DX2                !
 ! A25   A(12,11,18)           119.8612         estimate D2E/DX2                !
 ! A26   A(7,12,11)            121.7975         estimate D2E/DX2                !
 ! A27   A(7,12,19)            120.9505         estimate D2E/DX2                !
 ! A28   A(11,12,19)           117.252          estimate D2E/DX2                !
 ! A29   L(1,2,3,17,-1)        180.3389         estimate D2E/DX2                !
 ! A30   L(6,14,13,18,-1)      179.1205         estimate D2E/DX2                !
 ! A31   L(1,2,3,17,-2)        180.0057         estimate D2E/DX2                !
 ! A32   L(6,14,13,18,-2)      179.9904         estimate D2E/DX2                !
 ! D1    D(2,3,4,5)           -179.9963         estimate D2E/DX2                !
 ! D2    D(2,3,4,15)             0.0082         estimate D2E/DX2                !
 ! D3    D(8,3,4,5)             -0.0164         estimate D2E/DX2                !
 ! D4    D(8,3,4,15)           179.988          estimate D2E/DX2                !
 ! D5    D(2,3,8,7)            179.9849         estimate D2E/DX2                !
 ! D6    D(2,3,8,9)             -0.023          estimate D2E/DX2                !
 ! D7    D(4,3,8,7)              0.0058         estimate D2E/DX2                !
 ! D8    D(4,3,8,9)            179.9979         estimate D2E/DX2                !
 ! D9    D(3,4,5,6)              0.0225         estimate D2E/DX2                !
 ! D10   D(3,4,5,16)          -179.9728         estimate D2E/DX2                !
 ! D11   D(15,4,5,6)          -179.9819         estimate D2E/DX2                !
 ! D12   D(15,4,5,16)            0.0229         estimate D2E/DX2                !
 ! D13   D(4,5,6,7)             -0.0179         estimate D2E/DX2                !
 ! D14   D(4,5,6,14)           179.9748         estimate D2E/DX2                !
 ! D15   D(16,5,6,7)           179.9774         estimate D2E/DX2                !
 ! D16   D(16,5,6,14)           -0.0299         estimate D2E/DX2                !
 ! D17   D(5,6,7,8)              0.0073         estimate D2E/DX2                !
 ! D18   D(5,6,7,12)          -179.987          estimate D2E/DX2                !
 ! D19   D(14,6,7,8)          -179.9851         estimate D2E/DX2                !
 ! D20   D(14,6,7,12)            0.0206         estimate D2E/DX2                !
 ! D21   D(6,7,8,3)             -0.0013         estimate D2E/DX2                !
 ! D22   D(6,7,8,9)           -179.9939         estimate D2E/DX2                !
 ! D23   D(12,7,8,3)           179.9931         estimate D2E/DX2                !
 ! D24   D(12,7,8,9)             0.0006         estimate D2E/DX2                !
 ! D25   D(6,7,12,11)          179.9905         estimate D2E/DX2                !
 ! D26   D(6,7,12,19)           -0.004          estimate D2E/DX2                !
 ! D27   D(8,7,12,11)           -0.0038         estimate D2E/DX2                !
 ! D28   D(8,7,12,19)         -179.9983         estimate D2E/DX2                !
 ! D29   D(3,8,9,10)          -179.989          estimate D2E/DX2                !
 ! D30   D(3,8,9,17)             0.0067         estimate D2E/DX2                !
 ! D31   D(7,8,9,10)             0.0032         estimate D2E/DX2                !
 ! D32   D(7,8,9,17)           179.9989         estimate D2E/DX2                !
 ! D33   D(8,9,10,11)           -0.0038         estimate D2E/DX2                !
 ! D34   D(17,9,10,11)        -179.9997         estimate D2E/DX2                !
 ! D35   D(9,10,11,12)           0.0005         estimate D2E/DX2                !
 ! D36   D(9,10,11,18)         179.9975         estimate D2E/DX2                !
 ! D37   D(10,11,12,7)           0.0034         estimate D2E/DX2                !
 ! D38   D(10,11,12,19)        179.998          estimate D2E/DX2                !
 ! D39   D(18,11,12,7)        -179.9937         estimate D2E/DX2                !
 ! D40   D(18,11,12,19)          0.0009         estimate D2E/DX2                !
 --------------------------------------------------------------------------------
 Trust Radius=3.00D-01 FncErr=1.00D-07 GrdErr=1.00D-06
 Number of steps in this run=    102 maximum allowed number of steps=    114.
 GradGradGradGradGradGradGradGradGradGradGradGradGradGradGradGradGradGrad

                          Input orientation:                          
 ---------------------------------------------------------------------
 Center     Atomic      Atomic             Coordinates (Angstroms)
 Number     Number       Type             X           Y           Z
 ---------------------------------------------------------------------
      1          7           0        1.164960    0.099310    0.045970
      2          6           0        2.325570    0.067360    0.046090
      3          6           0        3.768370    0.036180    0.046380
      4          6           0        4.453340    1.260020    0.046460
      5          6           0        5.848090    1.295370    0.046660
      6          6           0        6.583670    0.107860    0.046310
      7          6           0        5.918450   -1.143270    0.046130
      8          6           0        4.490480   -1.188550    0.046150
      9          6           0        3.865270   -2.463360    0.046100
     10          6           0        4.606610   -3.644000    0.046100
     11          6           0        5.989730   -3.591740    0.046070
     12          6           0        6.635810   -2.358970    0.046050
     13          7           0        9.181830    0.265740    0.045530
     14          6           0        8.020600    0.205070    0.045980
     15          1           0        3.904950    2.200550    0.046440
     16          1           0        6.361580    2.256400    0.047170
     17          1           0        2.780790   -2.570000    0.046130
     18          1           0        6.572940   -4.507890    0.046110
     19          1           0        7.725360   -2.366700    0.046060
 ---------------------------------------------------------------------
                    Distance matrix (angstroms):
                    1          2          3          4          5
     1  N    0.000000
     2  C    1.161050   0.000000
     3  C    2.604175   1.443137   0.000000
     4  C    3.487218   2.439230   1.402486   0.000000
     5  C    4.833453   3.730436   2.431213   1.395198   0.000000
     6  C    5.418717   4.258293   2.816212   2.421937   1.396874
     7  C    4.913214   3.791360   2.452335   2.814667   2.439655
     8  C    3.566184   2.502827   1.421762   2.448852   2.830718
     9  C    3.722761   2.962300   2.501418   3.769534   4.249662
    10  C    5.085010   4.356298   3.774437   4.906415   5.093000
    11  C    6.074723   5.178328   4.253968   5.089211   4.889162
    12  C    5.997778   4.946236   3.736169   4.226141   3.738276
    13  N    8.018597   6.859129   5.418325   4.831895   3.489120
    14  C    6.856456   5.696695   4.255583   3.719982   2.430752
    15  H    3.452934   2.654231   2.168675   1.088728   2.143629
    16  H    5.626535   4.591435   3.413812   2.152708   1.089610
    17  H    3.120276   2.676358   2.787021   4.179291   4.934513
    18  H    7.104403   6.242841   5.339868   6.145038   5.848353
    19  H    7.008570   5.923038   4.629428   4.884589   4.115203
                    6          7          8          9         10
     6  C    0.000000
     7  C    1.416984   0.000000
     8  C    2.462138   1.428688   0.000000
     9  C    3.741774   2.440940   1.419869   0.000000
    10  C    4.240898   2.823929   2.458195   1.394093   0.000000
    11  C    3.746973   2.449507   2.832503   2.405529   1.384107
    12  C    2.467381   1.411571   2.443834   2.772506   2.401865
    13  N    2.602953   3.554569   4.911591   5.976102   6.018198
    14  C    1.440214   2.497410   3.795250   4.938349   5.144965
    15  H    3.399249   3.903244   3.439309   4.664079   5.886518
    16  H    2.159988   3.428428   3.920293   5.339260   6.155862
    17  H    4.651111   3.446806   2.198055   1.089710   2.118276
    18  H    4.615762   3.427685   3.918502   3.392872   2.147734
    19  H    2.725235   2.182133   3.442744   3.861300   3.370178
                   11         12         13         14         15
    11  C    0.000000
    12  C    1.391812   0.000000
    13  N    5.006961   3.656682   0.000000
    14  C    4.305833   2.914094   1.162814   0.000000
    15  H    6.156048   5.314774   5.620405   4.573895   0.000000
    16  H    5.859950   4.623510   3.452034   2.638239   2.457265
    17  H    3.367677   3.860792   7.001052   5.929302   4.901212
    18  H    1.086032   2.149839   5.440023   4.930285   7.219511
    19  H    2.124414   1.089577   3.008496   2.588661   5.954436
                   16         17         18         19
    16  H    0.000000
    17  H    6.009675   0.000000
    18  H    6.767591   4.258617   0.000000
    19  H    4.820057   4.948748   2.431618   0.000000
 Stoichiometry    C12H5N2(1-)
 Framework group  C1[X(C12H5N2)]
 Deg. of freedom    51
 Full point group                 C1      NOp   1
 Largest Abelian subgroup         C1      NOp   1
 Largest concise Abelian subgroup C1      NOp   1
                         Standard orientation:                         
 ---------------------------------------------------------------------
 Center     Atomic      Atomic             Coordinates (Angstroms)
 Number     Number       Type             X           Y           Z
 ---------------------------------------------------------------------
      1          7           0        4.066751   -0.811491   -0.000176
      2          6           0        2.905770   -0.798808   -0.000056
      3          6           0        1.462652   -0.791579    0.000234
      4          6           0        0.798088   -2.026619    0.000314
      5          6           0       -0.595883   -2.085113    0.000514
      6          6           0       -1.351071   -0.909975    0.000164
      7          6           0       -0.706708    0.352024   -0.000016
      8          6           0        0.720314    0.420997    0.000004
      9          6           0        1.324280    1.706009   -0.000046
     10          6           0        0.563447    2.874182   -0.000046
     11          6           0       -0.818615    2.798973   -0.000076
     12          6           0       -1.444146    1.555650   -0.000096
     13          7           0       -3.946253   -1.110955   -0.000616
     14          6           0       -2.786190   -1.031020   -0.000166
     15          1           0        1.362013   -2.957918    0.000294
     16          1           0       -1.093352   -3.054533    0.001024
     17          1           0        2.406841    1.830633   -0.000016
     18          1           0       -1.416950    3.705318   -0.000036
     19          1           0       -2.533674    1.545296   -0.000086
 ---------------------------------------------------------------------
 Rotational constants (GHZ):      1.0884764      0.6387146      0.4025182
 Standard basis: STO-3G (5D, 7F)
 There are    75 symmetry adapted cartesian basis functions of A   symmetry.
 There are    75 symmetry adapted basis functions of A   symmetry.
    75 basis functions,   225 primitive gaussians,    75 cartesian basis functions
    46 alpha electrons       46 beta electrons
       nuclear repulsion energy       715.5755250391 Hartrees.
 NAtoms=   19 NActive=   19 NUniq=   19 SFac= 1.00D+00 NAtFMM=   60 NAOKFM=F Big=F
 Integral buffers will be    131072 words long.
 Raffenetti 2 integral format.
 Two-electron integral symmetry is turned on.
 One-electron integrals computed using PRISM.
 NBasis=    75 RedAO= T EigKep=  1.55D-01  NBF=    75
 NBsUse=    75 1.00D-06 EigRej= -1.00D+00 NBFU=    75
 ExpMin= 1.69D-01 ExpMax= 9.91D+01 ExpMxC= 9.91D+01 IAcc=1 IRadAn=         1 AccDes= 0.00D+00
 Harris functional with IExCor=  402 and IRadAn=       1 diagonalized for initial guess.
 HarFok:  IExCor=  402 AccDes= 0.00D+00 IRadAn=         1 IDoV= 1 UseB2=F ITyADJ=14
 ICtDFT=  3500011 ScaDFX=  1.000000  1.000000  1.000000  1.000000
 FoFCou: FMM=F IPFlag=           0 FMFlag=      100000 FMFlg1=           0
         NFxFlg=           0 DoJE=T BraDBF=F KetDBF=T FulRan=T
         wScrn=  0.000000 ICntrl=     500 IOpCl=  0 I1Cent=   200000004 NGrid=           0
         NMat0=    1 NMatS0=      1 NMatT0=    0 NMatD0=    1 NMtDS0=    0 NMtDT0=    0
 Petite list used in FoFCou.
 Keep R1 ints in memory in canonical form, NReq=4993994.
 Requested convergence on RMS density matrix=1.00D-08 within 128 cycles.
 Requested convergence on MAX density matrix=1.00D-06.
 Requested convergence on             energy=1.00D-06.
 No special actions if energy rises.
 Integral accuracy reduced to 1.0D-05 until final iterations.
 EnCoef did    17 forward-backward iterations
 EnCoef did     6 forward-backward iterations
 EnCoef did    11 forward-backward iterations
 EnCoef did   100 forward-backward iterations
 EnCoef did   100 forward-backward iterations
 Rare condition: small coef for last iteration: -0.303D-14
 EnCoef did   100 forward-backward iterations
 Rare condition: small coef for last iteration:  0.000D+00
 EnCoef did   100 forward-backward iterations
 EnCoef did   100 forward-backward iterations
 EnCoef did   100 forward-backward iterations
 Initial convergence to 1.0D-05 achieved.  Increase integral accuracy.
 EnCoef did     3 forward-backward iterations
 EnCoef did    14 forward-backward iterations
 EnCoef did   100 forward-backward iterations
 EnCoef did     4 forward-backward iterations
 EnCoef did     5 forward-backward iterations
 EnCoef did     2 forward-backward iterations
 EnCoef did     2 forward-backward iterations
 EnCoef did     5 forward-backward iterations
 SCF Done:  E(RB3LYP) =  -562.478933213     A.U. after   36 cycles
            NFock= 36  Conv=0.47D-08     -V/T= 2.0131

 **********************************************************************

            Population analysis using the SCF density.

 **********************************************************************

 Orbital symmetries:
       Occupied  (A) (A) (A) (A) (A) (A) (A) (A) (A) (A) (A) (A)
                 (A) (A) (A) (A) (A) (A) (A) (A) (A) (A) (A) (A)
                 (A) (A) (A) (A) (A) (A) (A) (A) (A) (A) (A) (A)
                 (A) (A) (A) (A) (A) (A) (A) (A) (A) (A)
       Virtual   (A) (A) (A) (A) (A) (A) (A) (A) (A) (A) (A) (A)
                 (A) (A) (A) (A) (A) (A) (A) (A) (A) (A) (A) (A)
                 (A) (A) (A) (A) (A)
 The electronic state is 1-A.
 Alpha  occ. eigenvalues --  -13.98427 -13.98012  -9.89679  -9.89284  -9.89213
 Alpha  occ. eigenvalues --   -9.88824  -9.87547  -9.87478  -9.86922  -9.86653
 Alpha  occ. eigenvalues --   -9.83219  -9.81303  -9.79806  -9.68189  -0.73764
 Alpha  occ. eigenvalues --   -0.73337  -0.68543  -0.61798  -0.60216  -0.54061
 Alpha  occ. eigenvalues --   -0.51134  -0.47287  -0.41629  -0.40219  -0.35088
 Alpha  occ. eigenvalues --   -0.33927  -0.30468  -0.27939  -0.24437  -0.22495
 Alpha  occ. eigenvalues --   -0.21996  -0.21222  -0.20182  -0.18358  -0.18097
 Alpha  occ. eigenvalues --   -0.14709  -0.14639  -0.14187  -0.14104  -0.13474
 Alpha  occ. eigenvalues --   -0.11428  -0.11371  -0.07059  -0.02840   0.01125
 Alpha  occ. eigenvalues --    0.12441
 Alpha virt. eigenvalues --    0.15292   0.23845   0.26544   0.27789   0.28039
 Alpha virt. eigenvalues --    0.28355   0.36602   0.39446   0.45225   0.47021
 Alpha virt. eigenvalues --    0.47745   0.52984   0.55541   0.59040   0.60241
 Alpha virt. eigenvalues --    0.60518   0.64033   0.65196   0.70552   0.72225
 Alpha virt. eigenvalues --    0.74707   0.78069   0.81252   0.85289   0.88660
 Alpha virt. eigenvalues --    0.97792   0.98927   1.13755   1.15331
          Condensed to atoms (all electrons):
               1          2          3          4          5          6
     1  N    6.585342   0.683933  -0.011388  -0.000182  -0.000001   0.000000
     2  C    0.683933   4.893813   0.430486  -0.033587   0.001016   0.000019
     3  C   -0.011388   0.430486   4.782306   0.495832  -0.030046  -0.010042
     4  C   -0.000182  -0.033587   0.495832   4.830160   0.503579  -0.030726
     5  C   -0.000001   0.001016  -0.030046   0.503579   4.830178   0.498081
     6  C    0.000000   0.000019  -0.010042  -0.030726   0.498081   4.775327
     7  C   -0.000002   0.000885  -0.028583  -0.009791  -0.029871   0.466264
     8  C   -0.000013  -0.028302   0.459894  -0.028722  -0.009466  -0.027027
     9  C   -0.000091  -0.004193  -0.028541   0.000767   0.000042   0.000882
    10  C    0.000000   0.000019   0.000905  -0.000010   0.000000   0.000021
    11  C    0.000000   0.000000   0.000031   0.000000  -0.000009   0.000886
    12  C    0.000000  -0.000007   0.000937   0.000042   0.000867  -0.031806
    13  N    0.000000   0.000000   0.000000  -0.000001  -0.000154  -0.011419
    14  C    0.000000   0.000000   0.000019   0.001056  -0.033870   0.431485
    15  H    0.000055  -0.003910  -0.024916   0.390198  -0.026706   0.001493
    16  H    0.000000  -0.000020   0.001436  -0.025893   0.390948  -0.025507
    17  H   -0.000258   0.001555  -0.003209   0.000008  -0.000001  -0.000019
    18  H    0.000000   0.000000   0.000001   0.000000   0.000000  -0.000020
    19  H    0.000000   0.000000  -0.000017  -0.000001   0.000026  -0.004227
               7          8          9         10         11         12
     1  N   -0.000002  -0.000013  -0.000091   0.000000   0.000000   0.000000
     2  C    0.000885  -0.028302  -0.004193   0.000019   0.000000  -0.000007
     3  C   -0.028583   0.459894  -0.028541   0.000905   0.000031   0.000937
     4  C   -0.009791  -0.028722   0.000767  -0.000010   0.000000   0.000042
     5  C   -0.029871  -0.009466   0.000042   0.000000  -0.000009   0.000867
     6  C    0.466264  -0.027027   0.000882   0.000021   0.000886  -0.031806
     7  C    4.786478   0.466234  -0.031644  -0.011320  -0.028773   0.489772
     8  C    0.466234   4.799922   0.470048  -0.025233  -0.010939  -0.029223
     9  C   -0.031644   0.470048   4.894074   0.494288  -0.031350  -0.013839
    10  C   -0.011320  -0.025233   0.494288   5.354816   0.469924  -0.029410
    11  C   -0.028773  -0.010939  -0.031350   0.469924   4.863743   0.502339
    12  C    0.489772  -0.029223  -0.013839  -0.029410   0.502339   4.868044
    13  N   -0.000054  -0.000002   0.000000   0.000000   0.000001  -0.000170
    14  C   -0.027955   0.000869  -0.000007   0.000000   0.000023  -0.005016
    15  H    0.000036   0.001317  -0.000018   0.000000   0.000000   0.000001
    16  H    0.001357   0.000034   0.000001   0.000000   0.000000  -0.000020
    17  H    0.001243  -0.029480   0.386873  -0.036549   0.002043  -0.000002
    18  H    0.001368  -0.000030   0.002022  -0.034234   0.386754  -0.032051
    19  H   -0.025956   0.001309   0.000088   0.001684  -0.027823   0.383817
              13         14         15         16         17         18
     1  N    0.000000   0.000000   0.000055   0.000000  -0.000258   0.000000
     2  C    0.000000   0.000000  -0.003910  -0.000020   0.001555   0.000000
     3  C    0.000000   0.000019  -0.024916   0.001436  -0.003209   0.000001
     4  C   -0.000001   0.001056   0.390198  -0.025893   0.000008   0.000000
     5  C   -0.000154  -0.033870  -0.026706   0.390948  -0.000001   0.000000
     6  C   -0.011419   0.431485   0.001493  -0.025507  -0.000019  -0.000020
     7  C   -0.000054  -0.027955   0.000036   0.001357   0.001243   0.001368
     8  C   -0.000002   0.000869   0.001317   0.000034  -0.029480  -0.000030
     9  C    0.000000  -0.000007  -0.000018   0.000001   0.386873   0.002022
    10  C    0.000000   0.000000   0.000000   0.000000  -0.036549  -0.034234
    11  C    0.000001   0.000023   0.000000   0.000000   0.002043   0.386754
    12  C   -0.000170  -0.005016   0.000001  -0.000020  -0.000002  -0.032051
    13  N    6.586926   0.682357   0.000000   0.000054   0.000000   0.000000
    14  C    0.682357   4.897695  -0.000021  -0.004129   0.000000  -0.000001
    15  H    0.000000  -0.000021   0.605710  -0.004134   0.000000   0.000000
    16  H    0.000054  -0.004129  -0.004134   0.605108   0.000000   0.000000
    17  H    0.000000   0.000000   0.000000   0.000000   0.638644  -0.000019
    18  H    0.000000  -0.000001   0.000000   0.000000  -0.000019   0.646990
    19  H   -0.000274   0.001450   0.000000  -0.000001   0.000004  -0.003669
              19
     1  N    0.000000
     2  C    0.000000
     3  C   -0.000017
     4  C   -0.000001
     5  C    0.000026
     6  C   -0.004227
     7  C   -0.025956
     8  C    0.001309
     9  C    0.000088
    10  C    0.001684
    11  C   -0.027823
    12  C    0.383817
    13  N   -0.000274
    14  C    0.001450
    15  H    0.000000
    16  H   -0.000001
    17  H    0.000004
    18  H   -0.003669
    19  H    0.624560
 Mulliken charges:
               1
     1  N   -0.257395
     2  C    0.058292
     3  C   -0.035105
     4  C   -0.092729
     5  C   -0.094614
     6  C   -0.033666
     7  C   -0.019689
     8  C   -0.011190
     9  C   -0.139405
    10  C   -0.184901
    11  C   -0.126851
    12  C   -0.104274
    13  N   -0.257264
    14  C    0.056044
    15  H    0.060894
    16  H    0.060767
    17  H    0.039166
    18  H    0.032887
    19  H    0.049032
 Sum of Mulliken charges =  -1.00000
 Mulliken charges with hydrogens summed into heavy atoms:
               1
     1  N   -0.257395
     2  C    0.058292
     3  C   -0.035105
     4  C   -0.031835
     5  C   -0.033846
     6  C   -0.033666
     7  C   -0.019689
     8  C   -0.011190
     9  C   -0.100238
    10  C   -0.184901
    11  C   -0.093964
    12  C   -0.055242
    13  N   -0.257264
    14  C    0.056044
 Electronic spatial extent (au):  <R**2>=           2552.7386
 Charge=             -1.0000 electrons
 Dipole moment (field-independent basis, Debye):
    X=             -1.2113    Y=             -3.8537    Z=              0.0546  Tot=              4.0400
 Quadrupole moment (field-independent basis, Debye-Ang):
   XX=           -119.8768   YY=            -93.7275   ZZ=            -74.1925
   XY=             -5.4183   XZ=              0.1579   YZ=              0.4111
 Traceless Quadrupole moment (field-independent basis, Debye-Ang):
   XX=            -23.9445   YY=              2.2047   ZZ=             21.7397
   XY=             -5.4183   XZ=              0.1579   YZ=              0.4111
 Octapole moment (field-independent basis, Debye-Ang**2):
  XXX=            -10.0094  YYY=            -72.6775  ZZZ=              0.0447  XYY=            -10.6885
  XXY=             38.5843  XXZ=              0.1252  XZZ=              0.1613  YZZ=             -1.9414
  YYZ=              1.5293  XYZ=              0.7682
 Hexadecapole moment (field-independent basis, Debye-Ang**3):
 XXXX=          -2841.7793 YYYY=          -1458.3311 ZZZZ=            -58.3982 XXXY=            -31.2211
 XXXZ=              0.0468 YYYX=            -55.1947 YYYZ=              5.4954 ZZZX=              0.0683
 ZZZY=              0.3050 XXYY=           -576.9711 XXZZ=           -325.5055 YYZZ=           -228.1158
 XXYZ=              0.2422 YYXZ=              2.3652 ZZXY=              1.0806
 N-N= 7.155755250391D+02 E-N=-2.753178963818D+03  KE= 5.551968562255D+02
 Calling FoFJK, ICntrl=      2127 FMM=F ISym2X=0 I1Cent= 0 IOpClX= 0 NMat=1 NMatS=1 NMatT=0.
 ***** Axes restored to original set *****
 -------------------------------------------------------------------
 Center     Atomic                   Forces (Hartrees/Bohr)
 Number     Number              X              Y              Z
 -------------------------------------------------------------------
      1        7          -0.105740305    0.004440613   -0.000986288
      2        6           0.094787654   -0.007641236    0.003612589
      3        6          -0.010044858    0.020809163   -0.000243315
      4        6          -0.000079394    0.010551800   -0.003228238
      5        6          -0.002543911    0.012993746    0.001892337
      6        6           0.011672028    0.020798402   -0.000788152
      7        6           0.012185055   -0.016693126    0.001763373
      8        6          -0.018492931   -0.014923858    0.010111780
      9        6           0.015943034   -0.017895754    0.006969882
     10        6          -0.050985117   -0.035409902   -0.015352542
     11        6           0.011682327    0.023760626    0.007064851
     12        6           0.020197991   -0.020955529   -0.009476301
     13        7           0.100571718    0.007490851   -0.000440402
     14        6          -0.086959452   -0.010891047    0.000753631
     15        1          -0.005434407    0.005012590   -0.001784929
     16        1           0.003375284    0.004772618    0.000270499
     17        1          -0.011283883    0.012919858   -0.005004539
     18        1           0.012226177   -0.009447458    0.008498366
     19        1           0.008922993    0.010307642   -0.003632603
 -------------------------------------------------------------------
 Cartesian Forces:  Max     0.105740305 RMS     0.028998649

 GradGradGradGradGradGradGradGradGradGradGradGradGradGradGradGradGradGrad
 Berny optimization.
 FormGI is forming the generalized inverse of G from B-inverse, IUseBI=4.
 Internal  Forces:  Max     0.105822287 RMS     0.018799456
 Search for a local minimum.
 Step number   1 out of a maximum of  102
 All quantities printed in internal units (Hartrees-Bohrs-Radians)
 Mixed Optimization -- RFO/linear search
 Second derivative matrix not updated -- first step.
 ITU=  0
     Eigenvalues ---    0.01518   0.01518   0.01801   0.01808   0.01841
     Eigenvalues ---    0.01923   0.01930   0.01959   0.01986   0.02021
     Eigenvalues ---    0.02056   0.02099   0.02107   0.02141   0.02203
     Eigenvalues ---    0.02234   0.04829   0.04829   0.16000   0.16000
     Eigenvalues ---    0.16000   0.16000   0.16000   0.22402   0.22478
     Eigenvalues ---    0.23289   0.24504   0.24595   0.25000   0.25000
     Eigenvalues ---    0.25000   0.34846   0.34858   0.34862   0.34960
     Eigenvalues ---    0.35275   0.37384   0.39158   0.39556   0.39966
     Eigenvalues ---    0.40423   0.42063   0.42830   0.44421   0.44923
     Eigenvalues ---    0.45616   0.46029   0.46077   0.47690   1.25970
     Eigenvalues ---    1.27109
 RFO step:  Lambda=-4.77477203D-02 EMin= 1.51813722D-02
 Linear search not attempted -- first point.
 Maximum step size (   0.300) exceeded in Quadratic search.
    -- Step size scaled by   0.992
 Iteration  1 RMS(Cart)=  0.05742935 RMS(Int)=  0.00226325
 Iteration  2 RMS(Cart)=  0.00255214 RMS(Int)=  0.00077726
 Iteration  3 RMS(Cart)=  0.00000617 RMS(Int)=  0.00077724
 Iteration  4 RMS(Cart)=  0.00000001 RMS(Int)=  0.00077724
 Variable       Old X    -DE/DX   Delta X   Delta X   Delta X     New X
                                 (Linear)    (Quad)   (Total)
    R1        2.19407   0.10582   0.00000   0.07961   0.07961   2.27368
    R2        2.72713   0.01088   0.00000   0.02457   0.02457   2.75170
    R3        2.65032   0.01746   0.00000   0.03384   0.03383   2.68415
    R4        2.68674   0.03445   0.00000   0.07285   0.07294   2.75968
    R5        2.63654   0.01421   0.00000   0.02665   0.02655   2.66309
    R6        2.05740   0.00707   0.00000   0.01765   0.01765   2.07505
    R7        2.63971   0.02252   0.00000   0.04378   0.04370   2.68341
    R8        2.05907   0.00580   0.00000   0.01452   0.01452   2.07359
    R9        2.67771   0.03701   0.00000   0.07784   0.07784   2.75556
   R10        2.72161   0.01335   0.00000   0.02988   0.02988   2.75150
   R11        2.69983   0.02867   0.00000   0.06210   0.06226   2.76209
   R12        2.66748   0.01564   0.00000   0.03203   0.03176   2.69924
   R13        2.68316   0.01807   0.00000   0.03717   0.03751   2.72067
   R14        2.63445   0.01245   0.00000   0.02401   0.02428   2.65874
   R15        2.05925   0.00997   0.00000   0.02496   0.02496   2.08421
   R16        2.61558   0.04922   0.00000   0.09260   0.09251   2.70809
   R17        2.63014   0.01574   0.00000   0.03088   0.03056   2.66070
   R18        2.05230   0.01454   0.00000   0.03601   0.03601   2.08831
   R19        2.05900   0.00885   0.00000   0.02215   0.02215   2.08115
   R20        2.19740   0.10083   0.00000   0.07652   0.07652   2.27391
    A1        2.05944   0.00073   0.00000   0.00335   0.00332   2.06276
    A2        2.12515  -0.00528   0.00000  -0.01667  -0.01670   2.10845
    A3        2.09860   0.00455   0.00000   0.01331   0.01333   2.11193
    A4        2.10639   0.00143   0.00000   0.00138   0.00121   2.10760
    A5        2.10347  -0.00295   0.00000  -0.01134  -0.01126   2.09220
    A6        2.07333   0.00152   0.00000   0.00997   0.01005   2.08338
    A7        2.10004   0.00183   0.00000   0.00422   0.00397   2.10401
    A8        2.08686  -0.00017   0.00000   0.00147   0.00158   2.08843
    A9        2.09629  -0.00167   0.00000  -0.00569  -0.00559   2.09070
   A10        2.09833   0.00144   0.00000   0.00542   0.00528   2.10360
   A11        2.05783   0.00270   0.00000   0.00868   0.00874   2.06657
   A12        2.12703  -0.00414   0.00000  -0.01410  -0.01404   2.11298
   A13        2.09118  -0.00428   0.00000  -0.01074  -0.01024   2.08094
   A14        2.11982   0.00675   0.00000   0.02249   0.02289   2.14271
   A15        2.07219  -0.00246   0.00000  -0.01176  -0.01265   2.05954
   A16        2.07184  -0.00498   0.00000  -0.01360  -0.01378   2.05806
   A17        2.15288   0.00144   0.00000   0.00610   0.00558   2.15847
   A18        2.05846   0.00354   0.00000   0.00751   0.00690   2.06536
   A19        2.12494   0.01207   0.00000   0.04201   0.04172   2.16665
   A20        2.12478  -0.02041   0.00000  -0.08966  -0.08993   2.03485
   A21        2.03347   0.00834   0.00000   0.04766   0.04717   2.08064
   A22        2.09372  -0.02449   0.00000  -0.08152  -0.08194   2.01178
   A23        2.09129   0.01747   0.00000   0.06626   0.06492   2.15622
   A24        2.09992  -0.00336   0.00000  -0.00745  -0.00687   2.09305
   A25        2.09197  -0.01411   0.00000  -0.05880  -0.05820   2.03377
   A26        2.12577  -0.00612   0.00000  -0.02250  -0.02396   2.10181
   A27        2.11098  -0.00762   0.00000  -0.03974  -0.03928   2.07171
   A28        2.04643   0.01374   0.00000   0.06224   0.06275   2.10918
   A29        3.14751   0.00336   0.00000   0.05295   0.05295   3.20045
   A30        3.12624   0.00490   0.00000   0.05067   0.05067   3.17691
   A31        3.14169  -0.00210   0.00000  -0.03308  -0.03308   3.10861
   A32        3.14143  -0.00083   0.00000  -0.00856  -0.00856   3.13286
    D1       -3.14153  -0.00072   0.00000  -0.01068  -0.01091   3.13075
    D2        0.00014  -0.00051   0.00000  -0.00733  -0.00743  -0.00729
    D3       -0.00029  -0.00140   0.00000  -0.02041  -0.02073  -0.02101
    D4        3.14138  -0.00118   0.00000  -0.01707  -0.01725   3.12414
    D5        3.14133  -0.00036   0.00000  -0.00523  -0.00491   3.13642
    D6       -0.00040   0.00345   0.00000   0.05168   0.05104   0.05064
    D7        0.00010   0.00034   0.00000   0.00487   0.00516   0.00526
    D8        3.14156   0.00414   0.00000   0.06178   0.06111  -3.08052
    D9        0.00039   0.00133   0.00000   0.01924   0.01920   0.01959
   D10       -3.14112   0.00061   0.00000   0.00894   0.00907  -3.13205
   D11       -3.14128   0.00111   0.00000   0.01596   0.01573  -3.12554
   D12        0.00040   0.00039   0.00000   0.00565   0.00560   0.00600
   D13       -0.00031  -0.00019   0.00000  -0.00245  -0.00219  -0.00250
   D14        3.14115  -0.00073   0.00000  -0.01056  -0.01031   3.13084
   D15        3.14120   0.00053   0.00000   0.00791   0.00796  -3.13403
   D16       -0.00052  -0.00001   0.00000  -0.00020  -0.00017  -0.00069
   D17        0.00013  -0.00086   0.00000  -0.01293  -0.01308  -0.01295
   D18       -3.14137  -0.00096   0.00000  -0.01444  -0.01384   3.12798
   D19       -3.14133  -0.00030   0.00000  -0.00449  -0.00473   3.13712
   D20        0.00036  -0.00040   0.00000  -0.00601  -0.00550  -0.00514
   D21       -0.00002   0.00077   0.00000   0.01158   0.01137   0.01135
   D22       -3.14149  -0.00282   0.00000  -0.04223  -0.04153   3.10017
   D23        3.14147   0.00087   0.00000   0.01306   0.01210  -3.12961
   D24        0.00001  -0.00272   0.00000  -0.04076  -0.04080  -0.04079
   D25        3.14143  -0.00173   0.00000  -0.02407  -0.02282   3.11860
   D26       -0.00007   0.00067   0.00000   0.01015   0.01042   0.01035
   D27       -0.00007  -0.00183   0.00000  -0.02556  -0.02358  -0.02364
   D28       -3.14156   0.00057   0.00000   0.00866   0.00967  -3.13190
   D29       -3.14140  -0.00137   0.00000  -0.01992  -0.02050   3.12128
   D30        0.00012   0.00213   0.00000   0.03098   0.02909   0.02921
   D31        0.00006   0.00241   0.00000   0.03658   0.03567   0.03572
   D32        3.14157   0.00590   0.00000   0.08749   0.08526  -3.05635
   D33       -0.00007   0.00255   0.00000   0.03514   0.03358   0.03351
   D34       -3.14159  -0.00077   0.00000  -0.01323  -0.01723   3.12437
   D35        0.00001  -0.00714   0.00000  -0.10208  -0.10308  -0.10307
   D36        3.14155  -0.00599   0.00000  -0.08458  -0.08373   3.05782
   D37        0.00006   0.00686   0.00000   0.09843   0.10066   0.10072
   D38        3.14156   0.00454   0.00000   0.06541   0.06669  -3.07493
   D39       -3.14148   0.00571   0.00000   0.08101   0.08191  -3.05957
   D40        0.00002   0.00339   0.00000   0.04799   0.04795   0.04796
         Item               Value     Threshold  Converged?
 Maximum Force            0.105822     0.000450     NO 
 RMS     Force            0.018799     0.000300     NO 
 Maximum Displacement     0.176606     0.001800     NO 
 RMS     Displacement     0.057184     0.001200     NO 
 Predicted change in Energy=-2.757457D-02
 GradGradGradGradGradGradGradGradGradGradGradGradGradGradGradGradGradGrad

                          Input orientation:                          
 ---------------------------------------------------------------------
 Center     Atomic      Atomic             Coordinates (Angstroms)
 Number     Number       Type             X           Y           Z
 ---------------------------------------------------------------------
      1          7           0        1.100378    0.148735    0.062488
      2          6           0        2.300014    0.059807    0.087075
      3          6           0        3.755967    0.040149    0.074549
      4          6           0        4.443568    1.282798    0.051386
      5          6           0        5.852119    1.327154    0.051531
      6          6           0        6.612039    0.127607    0.050930
      7          6           0        5.947369   -1.170273    0.053294
      8          6           0        4.486860   -1.224145    0.072813
      9          6           0        3.849894   -2.514306    0.022356
     10          6           0        4.544681   -3.737456   -0.003428
     11          6           0        5.972074   -3.631728    0.067507
     12          6           0        6.663884   -2.405821    0.036459
     13          7           0        9.261147    0.352858    0.015735
     14          6           0        8.064549    0.227845    0.037338
     15          1           0        3.875195    2.222202    0.036501
     16          1           0        6.364812    2.297268    0.042532
     17          1           0        2.749067   -2.519029   -0.045333
     18          1           0        6.589946   -4.545591    0.133123
     19          1           0        7.764836   -2.378695    0.031035
 ---------------------------------------------------------------------
                    Distance matrix (angstroms):
                    1          2          3          4          5
     1  N    0.000000
     2  C    1.203179   0.000000
     3  C    2.657836   1.456140   0.000000
     4  C    3.530318   2.468158   1.420390   0.000000
     5  C    4.895695   3.771589   2.459830   1.409249   0.000000
     6  C    5.511713   4.312709   2.857508   2.456976   1.419997
     7  C    5.023265   3.849342   2.503561   2.877321   2.499243
     8  C    3.654199   2.535948   1.460359   2.507409   2.893702
     9  C    3.827955   3.005391   2.556714   3.843344   4.332040
    10  C    5.193269   4.412020   3.859850   5.021571   5.230935
    11  C    6.166469   5.206902   4.288806   5.146761   4.960358
    12  C    6.122012   5.012509   3.800026   4.305338   3.820248
    13  N    8.163455   6.967664   5.514368   4.906641   3.545702
    14  C    6.964666   5.767198   4.312829   3.771555   2.470532
    15  H    3.464037   2.675763   2.185640   1.098067   2.170153
    16  H    5.686023   4.640129   3.449882   2.172649   1.097295
    17  H    3.137955   2.620987   2.752746   4.163481   4.942817
    18  H    7.223368   6.294071   5.391092   6.211581   5.919475
    19  H    7.127685   5.984456   4.682278   4.943457   4.170398
                    6          7          8          9         10
     6  C    0.000000
     7  C    1.458178   0.000000
     8  C    2.518749   1.461633   0.000000
     9  C    3.822298   2.491342   1.439717   0.000000
    10  C    4.383564   2.925950   2.515131   1.406943   0.000000
    11  C    3.813454   2.461620   2.828841   2.398815   1.433059
    12  C    2.534000   1.428375   2.477320   2.816115   2.503171
    13  N    2.658900   3.647254   5.028321   6.123914   6.243083
    14  C    1.456029   2.537211   3.861269   5.028214   5.302334
    15  H    3.446426   3.975308   3.500395   4.736597   5.997277
    16  H    2.183717   3.492593   3.990986   5.429223   6.303402
    17  H    4.683642   3.472465   2.170393   1.102917   2.170380
    18  H    4.673973   3.436867   3.931744   3.412663   2.203369
    19  H    2.758784   2.182651   3.475609   3.917299   3.495256
                   11         12         13         14         15
    11  C    0.000000
    12  C    1.407982   0.000000
    13  N    5.166973   3.788999   0.000000
    14  C    4.390406   2.982961   1.203304   0.000000
    15  H    6.218228   5.403275   5.701171   4.639844   0.000000
    16  H    5.942041   4.712592   3.488581   2.677993   2.490756
    17  H    3.411540   3.917308   7.117489   5.983854   4.873821
    18  H    1.105087   2.143228   5.580672   4.996931   7.292615
    19  H    2.187560   1.101300   3.114573   2.623722   6.024748
                   16         17         18         19
    16  H    0.000000
    17  H    6.023126   0.000000
    18  H    6.847160   4.346395   0.000000
    19  H    4.881068   5.018313   2.467028   0.000000
 Stoichiometry    C12H5N2(1-)
 Framework group  C1[X(C12H5N2)]
 Deg. of freedom    51
 Full point group                 C1      NOp   1
 Largest Abelian subgroup         C1      NOp   1
 Largest concise Abelian subgroup C1      NOp   1
                         Standard orientation:                         
 ---------------------------------------------------------------------
 Center     Atomic      Atomic             Coordinates (Angstroms)
 Number     Number       Type             X           Y           Z
 ---------------------------------------------------------------------
      1          7           0        4.113965   -0.946182   -0.006121
      2          6           0        2.914796   -0.852726    0.023879
      3          6           0        1.458890   -0.827424    0.017619
      4          6           0        0.766404   -2.067331   -0.006903
      5          6           0       -0.642294   -2.106269   -0.000915
      6          6           0       -1.397572   -0.903813    0.005858
      7          6           0       -0.727892    0.391484    0.009869
      8          6           0        0.732884    0.439670    0.023356
      9          6           0        1.374607    1.727539   -0.025361
     10          6           0        0.684445    2.953434   -0.043967
     11          6           0       -0.743031    2.852952    0.032678
     12          6           0       -1.439696    1.629830    0.000347
     13          7           0       -4.047656   -1.118750   -0.018837
     14          6           0       -2.850504   -0.998415   -0.001897
     15          1           0        1.331077   -3.008858   -0.027449
     16          1           0       -1.158763   -3.074367   -0.011077
     17          1           0        2.475147    1.728261   -0.097719
     18          1           0       -1.357086    3.768952    0.104075
     19          1           0       -2.540758    1.606958   -0.000484
 ---------------------------------------------------------------------
 Rotational constants (GHZ):      1.0397440      0.6183582      0.3878064
 Standard basis: STO-3G (5D, 7F)
 There are    75 symmetry adapted cartesian basis functions of A   symmetry.
 There are    75 symmetry adapted basis functions of A   symmetry.
    75 basis functions,   225 primitive gaussians,    75 cartesian basis functions
    46 alpha electrons       46 beta electrons
       nuclear repulsion energy       702.5663913792 Hartrees.
 NAtoms=   19 NActive=   19 NUniq=   19 SFac= 1.00D+00 NAtFMM=   60 NAOKFM=F Big=F
 Integral buffers will be    131072 words long.
 Raffenetti 2 integral format.
 Two-electron integral symmetry is turned on.
 One-electron integrals computed using PRISM.
 NBasis=    75 RedAO= T EigKep=  1.77D-01  NBF=    75
 NBsUse=    75 1.00D-06 EigRej= -1.00D+00 NBFU=    75
 Initial guess from the checkpoint file:  "/tmp/bnp.472697.sequoia/Gau-9093.chk"
 B after Tr=     0.000000    0.000000    0.000000
         Rot=    0.999950   -0.000012   -0.000005    0.009989 Ang=  -1.14 deg.
 ExpMin= 1.69D-01 ExpMax= 9.91D+01 ExpMxC= 9.91D+01 IAcc=1 IRadAn=         1 AccDes= 0.00D+00
 Harris functional with IExCor=  402 and IRadAn=       1 diagonalized for initial guess.
 HarFok:  IExCor=  402 AccDes= 0.00D+00 IRadAn=         1 IDoV= 1 UseB2=F ITyADJ=14
 ICtDFT=  3500011 ScaDFX=  1.000000  1.000000  1.000000  1.000000
 FoFCou: FMM=F IPFlag=           0 FMFlag=      100000 FMFlg1=           0
         NFxFlg=           0 DoJE=T BraDBF=F KetDBF=T FulRan=T
         wScrn=  0.000000 ICntrl=     500 IOpCl=  0 I1Cent=   200000004 NGrid=           0
         NMat0=    1 NMatS0=      1 NMatT0=    0 NMatD0=    1 NMtDS0=    0 NMtDT0=    0
 Petite list used in FoFCou.
 Keep R1 ints in memory in canonical form, NReq=4993994.
 Requested convergence on RMS density matrix=1.00D-08 within 128 cycles.
 Requested convergence on MAX density matrix=1.00D-06.
 Requested convergence on             energy=1.00D-06.
 No special actions if energy rises.
 Integral accuracy reduced to 1.0D-05 until final iterations.
 Initial convergence to 1.0D-05 achieved.  Increase integral accuracy.
 SCF Done:  E(RB3LYP) =  -562.503950152     A.U. after   17 cycles
            NFock= 17  Conv=0.88D-08     -V/T= 2.0143
 Calling FoFJK, ICntrl=      2127 FMM=F ISym2X=0 I1Cent= 0 IOpClX= 0 NMat=1 NMatS=1 NMatT=0.
 ***** Axes restored to original set *****
 -------------------------------------------------------------------
 Center     Atomic                   Forces (Hartrees/Bohr)
 Number     Number              X              Y              Z
 -------------------------------------------------------------------
      1        7           0.003254964   -0.001151874    0.000726921
      2        6          -0.003587643    0.001270044   -0.000179377
      3        6           0.004530808    0.001139905    0.001047110
      4        6           0.000494615   -0.002258784   -0.001248539
      5        6          -0.000242157   -0.003151092    0.000697822
      6        6          -0.004923690    0.002078895   -0.000385902
      7        6           0.003122597    0.003335499    0.000324784
      8        6          -0.005744843    0.001676941    0.004529829
      9        6           0.008376967   -0.001495072    0.002841530
     10        6          -0.011206534   -0.010954761   -0.008567026
     11        6           0.006373597    0.015708586    0.004526112
     12        6           0.001267573   -0.011000266   -0.003693462
     13        7          -0.003614985   -0.000742093    0.000065253
     14        6           0.003309435   -0.000175173    0.000143345
     15        1          -0.000603306   -0.000748390   -0.000960446
     16        1           0.000550798   -0.000311633    0.000210184
     17        1          -0.000385346    0.004434367   -0.001911666
     18        1           0.000051088    0.000060016    0.004121455
     19        1          -0.001023939    0.002284884   -0.002287925
 -------------------------------------------------------------------
 Cartesian Forces:  Max     0.015708586 RMS     0.004384531

 GradGradGradGradGradGradGradGradGradGradGradGradGradGradGradGradGradGrad
 Berny optimization.
 Using GEDIIS/GDIIS optimizer.
 FormGI is forming the generalized inverse of G from B-inverse, IUseBI=4.
 Internal  Forces:  Max     0.009860638 RMS     0.002445376
 Search for a local minimum.
 Step number   2 out of a maximum of  102
 All quantities printed in internal units (Hartrees-Bohrs-Radians)
 Mixed Optimization -- RFO/linear search
 Update second derivatives using D2CorX and points    1    2
 DE= -2.50D-02 DEPred=-2.76D-02 R= 9.07D-01
 TightC=F SS=  1.41D+00  RLast= 3.94D-01 DXNew= 5.0454D-01 1.1821D+00
 Trust test= 9.07D-01 RLast= 3.94D-01 DXMaxT set to 5.05D-01
 ITU=  1  0
 Use linear search instead of GDIIS.
     Eigenvalues ---    0.01518   0.01533   0.01804   0.01826   0.01844
     Eigenvalues ---    0.01925   0.01962   0.01962   0.01989   0.02024
     Eigenvalues ---    0.02066   0.02100   0.02110   0.02142   0.02219
     Eigenvalues ---    0.02283   0.04829   0.04867   0.15706   0.15991
     Eigenvalues ---    0.15999   0.16000   0.16047   0.21739   0.22471
     Eigenvalues ---    0.22730   0.24451   0.24523   0.24970   0.24980
     Eigenvalues ---    0.25000   0.34840   0.34857   0.34905   0.34988
     Eigenvalues ---    0.35320   0.37759   0.39167   0.39603   0.40028
     Eigenvalues ---    0.40488   0.42310   0.43039   0.44599   0.45308
     Eigenvalues ---    0.45416   0.46044   0.46786   0.49020   1.26466
     Eigenvalues ---    1.30579
 RFO step:  Lambda=-5.45925922D-03 EMin= 1.51811472D-02
 Quartic linear search produced a step of  0.10552.
 Iteration  1 RMS(Cart)=  0.06666751 RMS(Int)=  0.00361308
 Iteration  2 RMS(Cart)=  0.00439685 RMS(Int)=  0.00085783
 Iteration  3 RMS(Cart)=  0.00002100 RMS(Int)=  0.00085774
 Iteration  4 RMS(Cart)=  0.00000000 RMS(Int)=  0.00085774
 Variable       Old X    -DE/DX   Delta X   Delta X   Delta X     New X
                                 (Linear)    (Quad)   (Total)
    R1        2.27368  -0.00335   0.00840  -0.00938  -0.00098   2.27270
    R2        2.75170   0.00034   0.00259  -0.00111   0.00148   2.75319
    R3        2.68415  -0.00362   0.00357  -0.01136  -0.00770   2.67644
    R4        2.75968  -0.00287   0.00770  -0.01332  -0.00556   2.75412
    R5        2.66309  -0.00168   0.00280  -0.00611  -0.00329   2.65981
    R6        2.07505  -0.00031   0.00186  -0.00245  -0.00059   2.07446
    R7        2.68341  -0.00384   0.00461  -0.01274  -0.00819   2.67521
    R8        2.07359  -0.00002   0.00153  -0.00128   0.00025   2.07384
    R9        2.75556  -0.00337   0.00821  -0.01511  -0.00698   2.74858
   R10        2.75150  -0.00037   0.00315  -0.00351  -0.00035   2.75114
   R11        2.76209  -0.00120   0.00657  -0.00829  -0.00134   2.76074
   R12        2.69924   0.00004   0.00335  -0.00290   0.00029   2.69952
   R13        2.72067  -0.00169   0.00396  -0.00698  -0.00249   2.71819
   R14        2.65874   0.00119   0.00256   0.00109   0.00382   2.66256
   R15        2.08421   0.00048   0.00263  -0.00061   0.00203   2.08624
   R16        2.70809   0.00861   0.00976   0.01149   0.02084   2.72893
   R17        2.66070  -0.00625   0.00322  -0.01733  -0.01466   2.64604
   R18        2.08831   0.00022   0.00380  -0.00233   0.00147   2.08978
   R19        2.08115  -0.00096   0.00234  -0.00481  -0.00247   2.07868
   R20        2.27391  -0.00367   0.00807  -0.00944  -0.00136   2.27255
    A1        2.06276   0.00045   0.00035   0.00154   0.00184   2.06461
    A2        2.10845  -0.00131  -0.00176  -0.00434  -0.00615   2.10230
    A3        2.11193   0.00086   0.00141   0.00270   0.00414   2.11607
    A4        2.10760  -0.00038   0.00013  -0.00189  -0.00176   2.10584
    A5        2.09220  -0.00074  -0.00119  -0.00428  -0.00547   2.08673
    A6        2.08338   0.00112   0.00106   0.00615   0.00721   2.09059
    A7        2.10401  -0.00033   0.00042  -0.00235  -0.00207   2.10194
    A8        2.08843   0.00082   0.00017   0.00519   0.00542   2.09385
    A9        2.09070  -0.00049  -0.00059  -0.00289  -0.00342   2.08728
   A10        2.10360   0.00105   0.00056   0.00343   0.00374   2.10734
   A11        2.06657   0.00111   0.00092   0.00433   0.00538   2.07195
   A12        2.11298  -0.00216  -0.00148  -0.00778  -0.00914   2.10384
   A13        2.08094  -0.00059  -0.00108  -0.00063  -0.00122   2.07972
   A14        2.14271   0.00148   0.00242   0.00615   0.00937   2.15208
   A15        2.05954  -0.00089  -0.00133  -0.00551  -0.00819   2.05135
   A16        2.05806  -0.00063  -0.00145  -0.00183  -0.00387   2.05419
   A17        2.15847   0.00016   0.00059   0.00009   0.00001   2.15848
   A18        2.06536   0.00039   0.00073  -0.00151  -0.00199   2.06337
   A19        2.16665   0.00490   0.00440   0.01839   0.02153   2.18819
   A20        2.03485  -0.00707  -0.00949  -0.03471  -0.04410   1.99075
   A21        2.08064   0.00212   0.00498   0.01422   0.01898   2.09963
   A22        2.01178  -0.00986  -0.00865  -0.03840  -0.04950   1.96228
   A23        2.15622   0.00613   0.00685   0.02029   0.02379   2.18001
   A24        2.09305  -0.00294  -0.00073  -0.01180  -0.01122   2.08183
   A25        2.03377  -0.00321  -0.00614  -0.00909  -0.01387   2.01990
   A26        2.10181  -0.00104  -0.00253  -0.00760  -0.01287   2.08894
   A27        2.07171  -0.00196  -0.00414  -0.00863  -0.01188   2.05983
   A28        2.10918   0.00297   0.00662   0.01512   0.02278   2.13195
   A29        3.20045  -0.00198   0.00559  -0.11174  -0.10616   3.09430
   A30        3.17691  -0.00082   0.00535  -0.02180  -0.01646   3.16046
   A31        3.10861   0.00156  -0.00349   0.08728   0.08379   3.19240
   A32        3.13286  -0.00001  -0.00090   0.00062  -0.00028   3.13258
    D1        3.13075  -0.00045  -0.00115  -0.01810  -0.01944   3.11130
    D2       -0.00729  -0.00036  -0.00078  -0.01433  -0.01519  -0.02248
    D3       -0.02101  -0.00075  -0.00219  -0.02875  -0.03116  -0.05218
    D4        3.12414  -0.00066  -0.00182  -0.02497  -0.02691   3.09722
    D5        3.13642   0.00009  -0.00052   0.00362   0.00333   3.13974
    D6        0.05064   0.00170   0.00539   0.07331   0.07820   0.12884
    D7        0.00526   0.00038   0.00054   0.01451   0.01525   0.02051
    D8       -3.08052   0.00199   0.00645   0.08420   0.09013  -2.99039
    D9        0.01959   0.00053   0.00203   0.02040   0.02241   0.04200
   D10       -3.13205   0.00038   0.00096   0.01510   0.01615  -3.11590
   D11       -3.12554   0.00044   0.00166   0.01662   0.01812  -3.10742
   D12        0.00600   0.00029   0.00059   0.01132   0.01187   0.01787
   D13       -0.00250   0.00003  -0.00023   0.00175   0.00171  -0.00079
   D14        3.13084  -0.00002  -0.00109  -0.00029  -0.00119   3.12965
   D15       -3.13403   0.00017   0.00084   0.00702   0.00789  -3.12614
   D16       -0.00069   0.00012  -0.00002   0.00498   0.00499   0.00430
   D17       -0.01295  -0.00038  -0.00138  -0.01540  -0.01697  -0.02992
   D18        3.12798  -0.00008  -0.00146  -0.00572  -0.00670   3.12128
   D19        3.13712  -0.00034  -0.00050  -0.01337  -0.01409   3.12302
   D20       -0.00514  -0.00005  -0.00058  -0.00368  -0.00382  -0.00896
   D21        0.01135   0.00017   0.00120   0.00720   0.00839   0.01974
   D22        3.10017  -0.00135  -0.00438  -0.05863  -0.06223   3.03794
   D23       -3.12961  -0.00011   0.00128  -0.00203  -0.00129  -3.13090
   D24       -0.04079  -0.00164  -0.00431  -0.06786  -0.07192  -0.11271
   D25        3.11860  -0.00091  -0.00241  -0.03392  -0.03516   3.08344
   D26        0.01035   0.00014   0.00110   0.00366   0.00525   0.01561
   D27       -0.02364  -0.00061  -0.00249  -0.02435  -0.02505  -0.04869
   D28       -3.13190   0.00043   0.00102   0.01323   0.01537  -3.11653
   D29        3.12128  -0.00047  -0.00216  -0.01213  -0.01457   3.10672
   D30        0.02921   0.00082   0.00307   0.03758   0.03947   0.06868
   D31        0.03572   0.00118   0.00376   0.05784   0.06073   0.09645
   D32       -3.05635   0.00247   0.00900   0.10755   0.11476  -2.94159
   D33        0.03351   0.00116   0.00354   0.04404   0.04601   0.07952
   D34        3.12437  -0.00039  -0.00182  -0.00818  -0.01279   3.11158
   D35       -0.10307  -0.00397  -0.01088  -0.14550  -0.15670  -0.25977
   D36        3.05782  -0.00290  -0.00884  -0.10755  -0.11553   2.94229
   D37        0.10072   0.00399   0.01062   0.13994   0.15224   0.25296
   D38       -3.07493   0.00282   0.00704   0.10107   0.10939  -2.96554
   D39       -3.05957   0.00295   0.00864   0.10313   0.11239  -2.94718
   D40        0.04796   0.00179   0.00506   0.06427   0.06954   0.11750
         Item               Value     Threshold  Converged?
 Maximum Force            0.009861     0.000450     NO 
 RMS     Force            0.002445     0.000300     NO 
 Maximum Displacement     0.301833     0.001800     NO 
 RMS     Displacement     0.066764     0.001200     NO 
 Predicted change in Energy=-3.045983D-03
 GradGradGradGradGradGradGradGradGradGradGradGradGradGradGradGradGradGrad

                          Input orientation:                          
 ---------------------------------------------------------------------
 Center     Atomic      Atomic             Coordinates (Angstroms)
 Number     Number       Type             X           Y           Z
 ---------------------------------------------------------------------
      1          7           0        1.111334    0.010615    0.207774
      2          6           0        2.310206    0.061813    0.127293
      3          6           0        3.766661    0.046510    0.093624
      4          6           0        4.449985    1.285945    0.040567
      5          6           0        5.856787    1.330523    0.042966
      6          6           0        6.612140    0.133226    0.047330
      7          6           0        5.951561   -1.162596    0.050408
      8          6           0        4.492132   -1.217499    0.087111
      9          6           0        3.856285   -2.501304   -0.041505
     10          6           0        4.524135   -3.740904   -0.092049
     11          6           0        5.948409   -3.607911    0.105803
     12          6           0        6.658789   -2.403613    0.030595
     13          7           0        9.263698    0.319021    0.012684
     14          6           0        8.065163    0.222862    0.034451
     15          1           0        3.874909    2.220324    0.004637
     16          1           0        6.374637    2.297938    0.025955
     17          1           0        2.765725   -2.449100   -0.205056
     18          1           0        6.557533   -4.514686    0.278028
     19          1           0        7.758313   -2.371784    0.027275
 ---------------------------------------------------------------------
                    Distance matrix (angstroms):
                    1          2          3          4          5
     1  N    0.000000
     2  C    1.202661   0.000000
     3  C    2.658022   1.456924   0.000000
     4  C    3.577851   2.466712   1.416313   0.000000
     5  C    4.928351   3.767621   2.453544   1.407510   0.000000
     6  C    5.504512   4.303269   2.847176   2.450250   1.415661
     7  C    4.982869   3.842467   2.497517   2.872312   2.494930
     8  C    3.598975   2.529635   1.457419   2.504231   2.890786
     9  C    3.729160   2.998070   2.552969   3.834380   4.323429
    10  C    5.080453   4.405706   3.866878   5.029144   5.245336
    11  C    6.041641   5.167577   4.256168   5.118531   4.939683
    12  C    6.052615   4.999785   3.790974   4.300204   3.819310
    13  N    8.160528   6.959191   5.504383   4.909945   3.554025
    14  C    6.959227   5.757958   4.302525   3.768249   2.470609
    15  H    3.544211   2.668803   2.178326   1.097756   2.172799
    16  H    5.741712   4.640055   3.446018   2.174541   1.097429
    17  H    2.992931   2.573448   2.705393   4.104585   4.888939
    18  H    7.081269   6.245546   5.350465   6.176201   5.891753
    19  H    7.063338   5.967769   4.667530   4.931956   4.162106
                    6          7          8          9         10
     6  C    0.000000
     7  C    1.454485   0.000000
     8  C    2.514055   1.460923   0.000000
     9  C    3.813578   2.488126   1.438402   0.000000
    10  C    4.403189   2.950510   2.529959   1.408966   0.000000
    11  C    3.800008   2.445945   2.799136   2.371342   1.444087
    12  C    2.537323   1.428527   2.470721   2.805133   2.521931
    13  N    2.658285   3.628617   5.013410   6.098958   6.241588
    14  C    1.455842   2.527264   3.852787   5.014131   5.316608
    15  H    3.442417   3.969726   3.493765   4.721891   5.997256
    16  H    2.177807   3.486385   3.988215   5.420274   6.317111
    17  H    4.639721   3.445273   2.140720   1.103990   2.184842
    18  H    4.653954   3.414018   3.895352   3.384161   2.206898
    19  H    2.754848   2.174173   3.464664   3.904783   3.514063
                   11         12         13         14         15
    11  C    0.000000
    12  C    1.400225   0.000000
    13  N    5.140099   3.768104   0.000000
    14  C    4.377278   2.979308   1.202583   0.000000
    15  H    6.186919   5.397356   5.714373   4.642087   0.000000
    16  H    5.921748   4.710132   3.501851   2.676545   2.501023
    17  H    3.401316   3.900455   7.066368   5.939763   4.803934
    18  H    1.105863   2.127934   5.546031   4.977613   7.254762
    19  H    2.193156   1.099990   3.083315   2.612737   6.014050
                   16         17         18         19
    16  H    0.000000
    17  H    5.967577   0.000000
    18  H    6.819738   4.344861   0.000000
    19  H    4.870407   4.998589   2.469166   0.000000
 Stoichiometry    C12H5N2(1-)
 Framework group  C1[X(C12H5N2)]
 Deg. of freedom    51
 Full point group                 C1      NOp   1
 Largest Abelian subgroup         C1      NOp   1
 Largest concise Abelian subgroup C1      NOp   1
                         Standard orientation:                         
 ---------------------------------------------------------------------
 Center     Atomic      Atomic             Coordinates (Angstroms)
 Number     Number       Type             X           Y           Z
 ---------------------------------------------------------------------
      1          7           0        4.084138   -0.920047    0.091256
      2          6           0        2.883348   -0.935629    0.026027
      3          6           0        1.427640   -0.877853    0.011763
      4          6           0        0.707979   -2.096312   -0.046455
      5          6           0       -0.699377   -2.100249   -0.025997
      6          6           0       -1.419517   -0.881762    0.002045
      7          6           0       -0.721594    0.394304    0.011238
      8          6           0        0.739165    0.406579    0.029299
      9          6           0        1.410325    1.672907   -0.092992
     10          6           0        0.778166    2.931797   -0.120520
     11          6           0       -0.646706    2.837682    0.094579
     12          6           0       -1.392675    1.655386    0.014973
     13          7           0       -4.075579   -0.990445    0.000278
     14          6           0       -2.874576   -0.929219    0.007321
     15          1           0        1.255163   -3.046427   -0.100669
     16          1           0       -1.245283   -3.052029   -0.047246
     17          1           0        2.496715    1.591152   -0.271511
     18          1           0       -1.226970    3.759577    0.285200
     19          1           0       -2.492611    1.655380    0.025802
 ---------------------------------------------------------------------
 Rotational constants (GHZ):      1.0534264      0.6194535      0.3905127
 Standard basis: STO-3G (5D, 7F)
 There are    75 symmetry adapted cartesian basis functions of A   symmetry.
 There are    75 symmetry adapted basis functions of A   symmetry.
    75 basis functions,   225 primitive gaussians,    75 cartesian basis functions
    46 alpha electrons       46 beta electrons
       nuclear repulsion energy       703.9859551574 Hartrees.
 NAtoms=   19 NActive=   19 NUniq=   19 SFac= 1.00D+00 NAtFMM=   60 NAOKFM=F Big=F
 Integral buffers will be    131072 words long.
 Raffenetti 2 integral format.
 Two-electron integral symmetry is turned on.
 One-electron integrals computed using PRISM.
 NBasis=    75 RedAO= T EigKep=  1.76D-01  NBF=    75
 NBsUse=    75 1.00D-06 EigRej= -1.00D+00 NBFU=    75
 Initial guess from the checkpoint file:  "/tmp/bnp.472697.sequoia/Gau-9093.chk"
 B after Tr=     0.000000    0.000000    0.000000
         Rot=    0.999935    0.000133   -0.000024    0.011369 Ang=   1.30 deg.
 ExpMin= 1.69D-01 ExpMax= 9.91D+01 ExpMxC= 9.91D+01 IAcc=1 IRadAn=         1 AccDes= 0.00D+00
 Harris functional with IExCor=  402 and IRadAn=       1 diagonalized for initial guess.
 HarFok:  IExCor=  402 AccDes= 0.00D+00 IRadAn=         1 IDoV= 1 UseB2=F ITyADJ=14
 ICtDFT=  3500011 ScaDFX=  1.000000  1.000000  1.000000  1.000000
 FoFCou: FMM=F IPFlag=           0 FMFlag=      100000 FMFlg1=           0
         NFxFlg=           0 DoJE=T BraDBF=F KetDBF=T FulRan=T
         wScrn=  0.000000 ICntrl=     500 IOpCl=  0 I1Cent=   200000004 NGrid=           0
         NMat0=    1 NMatS0=      1 NMatT0=    0 NMatD0=    1 NMtDS0=    0 NMtDT0=    0
 Petite list used in FoFCou.
 Keep R1 ints in memory in canonical form, NReq=4993994.
 Requested convergence on RMS density matrix=1.00D-08 within 128 cycles.
 Requested convergence on MAX density matrix=1.00D-06.
 Requested convergence on             energy=1.00D-06.
 No special actions if energy rises.
 Integral accuracy reduced to 1.0D-05 until final iterations.
 Initial convergence to 1.0D-05 achieved.  Increase integral accuracy.
 SCF Done:  E(RB3LYP) =  -562.506194999     A.U. after   19 cycles
            NFock= 19  Conv=0.32D-08     -V/T= 2.0142
 Calling FoFJK, ICntrl=      2127 FMM=F ISym2X=0 I1Cent= 0 IOpClX= 0 NMat=1 NMatS=1 NMatT=0.
 ***** Axes restored to original set *****
 -------------------------------------------------------------------
 Center     Atomic                   Forces (Hartrees/Bohr)
 Number     Number              X              Y              Z
 -------------------------------------------------------------------
      1        7           0.002578583    0.003716831   -0.002225194
      2        6          -0.003519476   -0.007761804    0.004748714
      3        6           0.002089988    0.001944368   -0.001486274
      4        6           0.001503167    0.000916669    0.000094880
      5        6          -0.000762471    0.000890922   -0.000162560
      6        6          -0.002438397   -0.001310407   -0.000028027
      7        6           0.002512482    0.003313624    0.000107885
      8        6          -0.003002105    0.002709037   -0.000624003
      9        6          -0.002787794   -0.001383565   -0.001833253
     10        6          -0.000933654    0.001686583   -0.000096260
     11        6           0.004300662   -0.000599781    0.000740398
     12        6           0.000581923   -0.001677683    0.001147289
     13        7          -0.002856536   -0.000019224    0.000163901
     14        6           0.003702306   -0.000582763   -0.000201941
     15        1           0.000092457   -0.000247142   -0.000127170
     16        1           0.000007919   -0.000182323    0.000085007
     17        1           0.000204398   -0.000464604    0.000232344
     18        1          -0.000695933   -0.000706297    0.000369417
     19        1          -0.000577519   -0.000242443   -0.000905153
 -------------------------------------------------------------------
 Cartesian Forces:  Max     0.007761804 RMS     0.002064164

 GradGradGradGradGradGradGradGradGradGradGradGradGradGradGradGradGradGrad
 Berny optimization.
 Using GEDIIS/GDIIS optimizer.
 FormGI is forming the generalized inverse of G from B-inverse, IUseBI=4.
 Internal  Forces:  Max     0.007560613 RMS     0.001327840
 Search for a local minimum.
 Step number   3 out of a maximum of  102
 All quantities printed in internal units (Hartrees-Bohrs-Radians)
 Mixed Optimization -- RFO/linear search
 Update second derivatives using D2CorX and points    2    3
 DE= -2.24D-03 DEPred=-3.05D-03 R= 7.37D-01
 TightC=F SS=  1.41D+00  RLast= 4.10D-01 DXNew= 8.4853D-01 1.2304D+00
 Trust test= 7.37D-01 RLast= 4.10D-01 DXMaxT set to 8.49D-01
 ITU=  1  1  0
 Use linear search instead of GDIIS.
     Eigenvalues ---    0.01155   0.01518   0.01820   0.01847   0.01885
     Eigenvalues ---    0.01926   0.01971   0.01991   0.02004   0.02041
     Eigenvalues ---    0.02078   0.02101   0.02116   0.02142   0.02248
     Eigenvalues ---    0.03881   0.04832   0.04931   0.15428   0.15959
     Eigenvalues ---    0.15996   0.15999   0.16130   0.21702   0.22466
     Eigenvalues ---    0.22711   0.24369   0.24510   0.24882   0.24981
     Eigenvalues ---    0.25185   0.34833   0.34857   0.34907   0.34989
     Eigenvalues ---    0.35315   0.37822   0.39160   0.39615   0.39979
     Eigenvalues ---    0.40415   0.42582   0.43096   0.44379   0.44638
     Eigenvalues ---    0.45381   0.46074   0.46455   0.49255   1.26451
     Eigenvalues ---    1.30059
 RFO step:  Lambda=-3.21129381D-03 EMin= 1.15528958D-02
 Quartic linear search produced a step of -0.16787.
 Iteration  1 RMS(Cart)=  0.05507433 RMS(Int)=  0.01136442
 Iteration  2 RMS(Cart)=  0.02042850 RMS(Int)=  0.00094469
 Iteration  3 RMS(Cart)=  0.00100356 RMS(Int)=  0.00012524
 Iteration  4 RMS(Cart)=  0.00000176 RMS(Int)=  0.00012523
 Iteration  5 RMS(Cart)=  0.00000000 RMS(Int)=  0.00012523
 Variable       Old X    -DE/DX   Delta X   Delta X   Delta X     New X
                                 (Linear)    (Quad)   (Total)
    R1        2.27270  -0.00288   0.00016  -0.00673  -0.00656   2.26614
    R2        2.75319   0.00097  -0.00025   0.00183   0.00158   2.75477
    R3        2.67644   0.00110   0.00129  -0.00590  -0.00459   2.67186
    R4        2.75412  -0.00208   0.00093  -0.01215  -0.01126   2.74286
    R5        2.65981  -0.00079   0.00055  -0.00528  -0.00466   2.65514
    R6        2.07446  -0.00025   0.00010  -0.00197  -0.00187   2.07259
    R7        2.67521   0.00046   0.00138  -0.00793  -0.00651   2.66870
    R8        2.07384  -0.00016  -0.00004  -0.00093  -0.00097   2.07287
    R9        2.74858  -0.00190   0.00117  -0.01313  -0.01197   2.73661
   R10        2.75114   0.00081   0.00006  -0.00024  -0.00018   2.75096
   R11        2.76074   0.00231   0.00023   0.00013   0.00030   2.76104
   R12        2.69952   0.00256  -0.00005   0.00313   0.00305   2.70257
   R13        2.71819   0.00174   0.00042  -0.00059  -0.00013   2.71806
   R14        2.66256   0.00004  -0.00064   0.00184   0.00124   2.66380
   R15        2.08624  -0.00027  -0.00034  -0.00034  -0.00068   2.08556
   R16        2.72893   0.00220  -0.00350   0.01513   0.01162   2.74055
   R17        2.64604  -0.00047   0.00246  -0.01405  -0.01163   2.63442
   R18        2.08978   0.00025  -0.00025  -0.00018  -0.00042   2.08936
   R19        2.07868  -0.00058   0.00042  -0.00443  -0.00402   2.07466
   R20        2.27255  -0.00285   0.00023  -0.00687  -0.00664   2.26591
    A1        2.06461   0.00131  -0.00031   0.00551   0.00526   2.06987
    A2        2.10230  -0.00168   0.00103  -0.00915  -0.00805   2.09425
    A3        2.11607   0.00037  -0.00070   0.00366   0.00285   2.11892
    A4        2.10584  -0.00010   0.00030  -0.00176  -0.00147   2.10436
    A5        2.08673   0.00000   0.00092  -0.00377  -0.00285   2.08388
    A6        2.09059   0.00010  -0.00121   0.00551   0.00430   2.09489
    A7        2.10194  -0.00037   0.00035  -0.00305  -0.00269   2.09925
    A8        2.09385   0.00028  -0.00091   0.00529   0.00436   2.09822
    A9        2.08728   0.00009   0.00057  -0.00217  -0.00161   2.08567
   A10        2.10734   0.00072  -0.00063   0.00484   0.00415   2.11149
   A11        2.07195   0.00029  -0.00090   0.00475   0.00387   2.07582
   A12        2.10384  -0.00101   0.00153  -0.00954  -0.00798   2.09586
   A13        2.07972  -0.00039   0.00020  -0.00148  -0.00126   2.07846
   A14        2.15208   0.00000  -0.00157   0.00676   0.00547   2.15755
   A15        2.05135   0.00039   0.00138  -0.00537  -0.00433   2.04701
   A16        2.05419  -0.00023   0.00065  -0.00300  -0.00236   2.05183
   A17        2.15848   0.00056   0.00000   0.00203   0.00231   2.16079
   A18        2.06337  -0.00030   0.00033  -0.00328  -0.00313   2.06024
   A19        2.18819  -0.00132  -0.00361   0.00939   0.00553   2.19372
   A20        1.99075   0.00112   0.00740  -0.02434  -0.01672   1.97402
   A21        2.09963   0.00024  -0.00319   0.01341   0.01043   2.11006
   A22        1.96228   0.00240   0.00831  -0.02865  -0.02086   1.94141
   A23        2.18001  -0.00142  -0.00399   0.00825   0.00379   2.18380
   A24        2.08183  -0.00029   0.00188  -0.01012  -0.00806   2.07377
   A25        2.01990   0.00171   0.00233   0.00036   0.00286   2.02275
   A26        2.08894   0.00016   0.00216  -0.00988  -0.00816   2.08078
   A27        2.05983   0.00014   0.00199  -0.00552  -0.00327   2.05655
   A28        2.13195  -0.00029  -0.00382   0.01414   0.01057   2.14252
   A29        3.09430   0.00756   0.01782   0.24734   0.26516   3.35946
   A30        3.16046   0.00047   0.00276  -0.00823  -0.00547   3.15499
   A31        3.19240  -0.00553  -0.01407  -0.17700  -0.19106   3.00134
   A32        3.13258   0.00026   0.00005   0.00427   0.00432   3.13690
    D1        3.11130  -0.00032   0.00326  -0.02705  -0.02380   3.08751
    D2       -0.02248  -0.00033   0.00255  -0.02331  -0.02078  -0.04325
    D3       -0.05218  -0.00009   0.00523  -0.02567  -0.02044  -0.07262
    D4        3.09722  -0.00009   0.00452  -0.02193  -0.01742   3.07980
    D5        3.13974   0.00072  -0.00056   0.02910   0.02852  -3.11493
    D6        0.12884   0.00048  -0.01313   0.06809   0.05497   0.18381
    D7        0.02051   0.00045  -0.00256   0.02750   0.02495   0.04546
[...]
 ! D14   D(4,5,6,14)          -179.889          -DE/DX =    0.0                 !
 ! D15   D(16,5,6,7)          -179.1807         -DE/DX =    0.0                 !
 ! D16   D(16,5,6,14)            0.4997         -DE/DX =    0.0                 !
 ! D17   D(5,6,7,8)             -0.9178         -DE/DX =    0.0                 !
 ! D18   D(5,6,7,12)          -179.9273         -DE/DX =    0.0                 !
 ! D19   D(14,6,7,8)           179.4069         -DE/DX =    0.0                 !
 ! D20   D(14,6,7,12)            0.3975         -DE/DX =    0.0                 !
 ! D21   D(6,7,8,3)             -0.5512         -DE/DX =    0.0                 !
 ! D22   D(6,7,8,9)            172.8158         -DE/DX =    0.0                 !
 ! D23   D(12,7,8,3)           178.5141         -DE/DX =    0.0                 !
 ! D24   D(12,7,8,9)            -8.1189         -DE/DX =    0.0                 !
 ! D25   D(6,7,12,11)          175.6178         -DE/DX =    0.0                 !
 ! D26   D(6,7,12,19)           -0.5355         -DE/DX =    0.0                 !
 ! D27   D(8,7,12,11)           -3.4016         -DE/DX =    0.0                 !
 ! D28   D(8,7,12,19)         -179.555          -DE/DX =    0.0                 !
 ! D29   D(3,8,9,10)          -178.999          -DE/DX =    0.0                 !
 ! D30   D(3,8,9,17)             6.1037         -DE/DX =    0.0                 !
 ! D31   D(7,8,9,10)             8.0753         -DE/DX =    0.0                 !
 ! D32   D(7,8,9,17)          -166.822          -DE/DX =    0.0                 !
 ! D33   D(8,9,10,11)            3.6036         -DE/DX =    0.0                 !
 ! D34   D(17,9,10,11)         178.2106         -DE/DX =    0.0                 !
 ! D35   D(9,10,11,12)         -16.3547         -DE/DX =    0.0                 !
 ! D36   D(9,10,11,18)         167.2786         -DE/DX =    0.0                 !
 ! D37   D(10,11,12,7)          16.654          -DE/DX =    0.0                 !
 ! D38   D(10,11,12,19)       -167.3621         -DE/DX =    0.0                 !
 ! D39   D(18,11,12,7)        -166.8938         -DE/DX =    0.0                 !
 ! D40   D(18,11,12,19)          9.0901         -DE/DX =    0.0                 !
 --------------------------------------------------------------------------------
 GradGradGradGradGradGradGradGradGradGradGradGradGradGradGradGradGradGrad

                          Input orientation:                          
 ---------------------------------------------------------------------
 Center     Atomic      Atomic             Coordinates (Angstroms)
 Number     Number       Type             X           Y           Z
 ---------------------------------------------------------------------
      1          7           0        1.110434    0.091766    0.226660
      2          6           0        2.309388    0.043882    0.172006
      3          6           0        3.766386    0.036449    0.102574
      4          6           0        4.444510    1.282097    0.054722
      5          6           0        5.848923    1.328044    0.037711
      6          6           0        6.606235    0.129966    0.034273
      7          6           0        5.953699   -1.166416    0.038805
      8          6           0        4.489695   -1.220744    0.067610
      9          6           0        3.858934   -2.508853   -0.087728
     10          6           0        4.541624   -3.736695   -0.103624
     11          6           0        5.959465   -3.611830    0.134881
     12          6           0        6.667064   -2.407146    0.037159
     13          7           0        9.257053    0.325857   -0.001903
     14          6           0        8.060435    0.221715    0.018930
     15          1           0        3.864975    2.213741    0.035178
     16          1           0        6.367356    2.294924    0.020497
     17          1           0        2.774347   -2.466903   -0.286407
     18          1           0        6.552251   -4.519199    0.353416
     19          1           0        7.765626   -2.371274    0.023131
 ---------------------------------------------------------------------
                    Distance matrix (angstroms):
                    1          2          3          4          5
     1  N    0.000000
     2  C    1.201154   0.000000
     3  C    2.659424   1.458670   0.000000
     4  C    3.544364   2.470967   1.419078   0.000000
     5  C    4.900752   3.767681   2.451405   1.405268   0.000000
     6  C    5.499300   4.299916   2.842210   2.449669   1.417365
     7  C    5.007547   3.842339   2.497056   2.876303   2.496660
     8  C    3.628689   2.522681   1.450839   2.503282   2.888722
     9  C    3.796881   2.997501   2.554083   3.838554   4.324069
    10  C    5.151627   4.399047   3.857477   5.022229   5.232647
    11  C    6.102307   5.166108   4.256828   5.123674   4.942066
    12  C    6.095621   5.001506   3.793332   4.307037   3.823741
    13  N    8.153185   6.955559   5.499281   4.906951   3.552646
    14  C    6.954319   5.755832   4.298858   3.768369   2.472873
    15  H    3.482375   2.673361   2.180565   1.097362   2.172675
    16  H    5.703651   4.642979   3.445649   2.173551   1.097235
    17  H    3.094936   2.594296   2.720702   4.118351   4.894864
    18  H    7.133754   6.233499   5.345830   6.179550   5.897847
    19  H    7.099265   5.968725   4.668764   4.937401   4.166403
                    6          7          8          9         10
     6  C    0.000000
     7  C    1.451355   0.000000
     8  C    2.511030   1.465294   0.000000
     9  C    3.811288   2.491222   1.442642   0.000000
    10  C    4.385511   2.936082   2.522306   1.404961   0.000000
    11  C    3.798614   2.447307   2.807497   2.382928   1.443174
    12  C    2.537842   1.431189   2.479800   2.812745   2.510979
    13  N    2.658292   3.625008   5.012435   6.097756   6.224946
    14  C    1.457172   2.523022   3.851395   5.011985   5.297742
    15  H    3.443346   3.973442   3.490990   4.724197   5.990393
    16  H    2.178141   3.486018   3.985944   5.420348   6.303105
    17  H    4.640036   3.450407   2.149572   1.103432   2.183815
    18  H    4.660419   3.420293   3.900722   3.389699   2.205407
    19  H    2.756903   2.176007   3.472379   3.910685   3.503517
                   11         12         13         14         15
    11  C    0.000000
    12  C    1.400539   0.000000
    13  N    5.137915   3.765484   0.000000
    14  C    4.373052   2.975353   1.201321   0.000000
    15  H    6.191454   5.404100   5.713141   4.644386   0.000000
    16  H    5.921926   4.711641   3.496866   2.676699   2.503741
    17  H    3.410765   3.906598   7.064412   5.938403   4.816774
    18  H    1.105654   2.138685   5.560285   4.986258   7.256391
    19  H    2.194010   1.099237   3.082125   2.609698   6.019766
                   16         17         18         19
    16  H    0.000000
    17  H    5.973182   0.000000
    18  H    6.824756   4.346706   0.000000
    19  H    4.871198   5.001782   2.488965   0.000000
 Stoichiometry    C12H5N2(1-)
 Framework group  C1[X(C12H5N2)]
 Deg. of freedom    51
 Full point group                 C1      NOp   1
 Largest Abelian subgroup         C1      NOp   1
 Largest concise Abelian subgroup C1      NOp   1
                         Standard orientation:                         
 ---------------------------------------------------------------------
 Center     Atomic      Atomic             Coordinates (Angstroms)
 Number     Number       Type             X           Y           Z
 ---------------------------------------------------------------------
      1          7           0        4.100147   -0.928761    0.094929
      2          6           0        2.901117   -0.866095    0.060738
      3          6           0        1.443370   -0.840651    0.015514
      4          6           0        0.749715   -2.077517   -0.037280
      5          6           0       -0.655237   -2.106752   -0.031656
      6          6           0       -1.398132   -0.899928   -0.007019
      7          6           0       -0.730164    0.388535    0.003546
      8          6           0        0.734660    0.425295    0.008838
      9          6           0        1.378140    1.707848   -0.140179
     10          6           0        0.710003    2.943720   -0.128845
     11          6           0       -0.705132    2.832370    0.131436
     12          6           0       -1.428582    1.637464    0.029802
     13          7           0       -4.051338   -1.064206   -0.001889
     14          6           0       -2.853381   -0.974396    0.000500
     15          1           0        1.317678   -3.015559   -0.078496
     16          1           0       -1.185399   -3.067171   -0.052842
     17          1           0        2.458747    1.655794   -0.357296
     18          1           0       -1.283373    3.743675    0.371503
     19          1           0       -2.527577    1.614674    0.033480
 ---------------------------------------------------------------------
 Rotational constants (GHZ):      1.0480537      0.6200744      0.3902603

 **********************************************************************

            Population analysis using the SCF density.

 **********************************************************************

 Orbital symmetries:
       Occupied  (A) (A) (A) (A) (A) (A) (A) (A) (A) (A) (A) (A)
                 (A) (A) (A) (A) (A) (A) (A) (A) (A) (A) (A) (A)
                 (A) (A) (A) (A) (A) (A) (A) (A) (A) (A) (A) (A)
                 (A) (A) (A) (A) (A) (A) (A) (A) (A) (A)
       Virtual   (A) (A) (A) (A) (A) (A) (A) (A) (A) (A) (A) (A)
                 (A) (A) (A) (A) (A) (A) (A) (A) (A) (A) (A) (A)
                 (A) (A) (A) (A) (A)
 The electronic state is 1-A.
 Alpha  occ. eigenvalues --  -13.98390 -13.98117  -9.89914  -9.89674  -9.89026
 Alpha  occ. eigenvalues --   -9.88738  -9.87956  -9.87801  -9.87012  -9.86659
 Alpha  occ. eigenvalues --   -9.82869  -9.81439  -9.79629  -9.69491  -0.72106
 Alpha  occ. eigenvalues --   -0.71712  -0.67325  -0.60987  -0.59414  -0.53291
 Alpha  occ. eigenvalues --   -0.50773  -0.46691  -0.41179  -0.39674  -0.34831
 Alpha  occ. eigenvalues --   -0.33214  -0.29837  -0.27774  -0.24207  -0.22440
 Alpha  occ. eigenvalues --   -0.21009  -0.20649  -0.19517  -0.17641  -0.17291
 Alpha  occ. eigenvalues --   -0.15006  -0.14417  -0.13648  -0.13026  -0.12551
 Alpha  occ. eigenvalues --   -0.11589  -0.09897  -0.06400  -0.01917   0.01165
 Alpha  occ. eigenvalues --    0.10044
 Alpha virt. eigenvalues --    0.15115   0.23016   0.25878   0.26276   0.26597
 Alpha virt. eigenvalues --    0.26996   0.34870   0.37480   0.43419   0.45051
 Alpha virt. eigenvalues --    0.45453   0.51307   0.53907   0.57159   0.57874
 Alpha virt. eigenvalues --    0.59292   0.60856   0.62995   0.66889   0.70124
 Alpha virt. eigenvalues --    0.72134   0.74990   0.79639   0.82520   0.84111
 Alpha virt. eigenvalues --    0.92244   0.94575   1.06381   1.08042
          Condensed to atoms (all electrons):
               1          2          3          4          5          6
     1  N    6.596349   0.657604  -0.010868  -0.000169  -0.000001   0.000000
     2  C    0.657604   4.932693   0.422907  -0.031357   0.000907   0.000017
     3  C   -0.010868   0.422907   4.792020   0.488776  -0.029072  -0.009092
     4  C   -0.000169  -0.031357   0.488776   4.834309   0.501479  -0.029263
     5  C   -0.000001   0.000907  -0.029072   0.501479   4.831265   0.490980
     6  C    0.000000   0.000017  -0.009092  -0.029263   0.490980   4.788342
     7  C   -0.000001   0.000772  -0.026298  -0.008031  -0.026918   0.457809
     8  C    0.000022  -0.027470   0.456468  -0.026057  -0.007885  -0.024369
     9  C   -0.000101  -0.003803  -0.025550   0.000595   0.000032   0.000698
    10  C    0.000000   0.000014   0.000666  -0.000006   0.000000   0.000013
    11  C    0.000000   0.000001   0.000047   0.000000  -0.000007   0.000742
    12  C    0.000000  -0.000005   0.000764   0.000033   0.000666  -0.027627
    13  N    0.000000   0.000000   0.000000  -0.000001  -0.000152  -0.010953
    14  C    0.000000   0.000000   0.000016   0.000906  -0.030913   0.424079
    15  H    0.000061  -0.003580  -0.024780   0.387704  -0.025122   0.001344
    16  H    0.000000  -0.000017   0.001338  -0.024931   0.387982  -0.024936
    17  H   -0.000228   0.002020  -0.004110   0.000016  -0.000001  -0.000019
    18  H    0.000000   0.000000   0.000001   0.000000   0.000000  -0.000017
    19  H    0.000000   0.000000  -0.000015  -0.000001   0.000017  -0.003621
               7          8          9         10         11         12
     1  N   -0.000001   0.000022  -0.000101   0.000000   0.000000   0.000000
     2  C    0.000772  -0.027470  -0.003803   0.000014   0.000001  -0.000005
     3  C   -0.026298   0.456468  -0.025550   0.000666   0.000047   0.000764
     4  C   -0.008031  -0.026057   0.000595  -0.000006   0.000000   0.000033
     5  C   -0.026918  -0.007885   0.000032   0.000000  -0.000007   0.000666
     6  C    0.457809  -0.024369   0.000698   0.000013   0.000742  -0.027627
     7  C    4.807091   0.448467  -0.029333  -0.008035  -0.029674   0.478172
     8  C    0.448467   4.824588   0.457550  -0.020899  -0.012798  -0.028431
     9  C   -0.029333   0.457550   4.917252   0.485428  -0.031773  -0.011270
    10  C   -0.008035  -0.020899   0.485428   5.367362   0.437324  -0.020797
    11  C   -0.029674  -0.012798  -0.031773   0.437324   4.891620   0.502824
    12  C    0.478172  -0.028431  -0.011270  -0.020797   0.502824   4.877754
    13  N   -0.000003  -0.000001   0.000000   0.000000   0.000000  -0.000108
    14  C   -0.026971   0.000743  -0.000005   0.000000   0.000016  -0.004080
    15  H    0.000023   0.001154  -0.000014   0.000000   0.000000   0.000000
    16  H    0.001175   0.000024   0.000000   0.000000   0.000000  -0.000015
    17  H    0.001253  -0.033900   0.381457  -0.031057   0.002040   0.000016
    18  H    0.001429   0.000008   0.001934  -0.030797   0.379776  -0.033189
    19  H   -0.027478   0.001208   0.000067   0.001134  -0.023400   0.382757
              13         14         15         16         17         18
     1  N    0.000000   0.000000   0.000061   0.000000  -0.000228   0.000000
     2  C    0.000000   0.000000  -0.003580  -0.000017   0.002020   0.000000
     3  C    0.000000   0.000016  -0.024780   0.001338  -0.004110   0.000001
     4  C   -0.000001   0.000906   0.387704  -0.024931   0.000016   0.000000
     5  C   -0.000152  -0.030913  -0.025122   0.387982  -0.000001   0.000000
     6  C   -0.010953   0.424079   0.001344  -0.024936  -0.000019  -0.000017
     7  C   -0.000003  -0.026971   0.000023   0.001175   0.001253   0.001429
     8  C   -0.000001   0.000743   0.001154   0.000024  -0.033900   0.000008
     9  C    0.000000  -0.000005  -0.000014   0.000000   0.381457   0.001934
    10  C    0.000000   0.000000   0.000000   0.000000  -0.031057  -0.030797
    11  C    0.000000   0.000016   0.000000   0.000000   0.002040   0.379776
    12  C   -0.000108  -0.004080   0.000000  -0.000015   0.000016  -0.033189
    13  N    6.599144   0.656912   0.000000   0.000059   0.000000   0.000000
    14  C    0.656912   4.935264  -0.000017  -0.003576   0.000000   0.000000
    15  H    0.000000  -0.000017   0.605991  -0.003619   0.000000   0.000000
    16  H    0.000059  -0.003576  -0.003619   0.605396   0.000000   0.000000
    17  H    0.000000   0.000000   0.000000   0.000000   0.651795  -0.000025
    18  H    0.000000   0.000000   0.000000   0.000000  -0.000025   0.657050
    19  H   -0.000189   0.001679   0.000000  -0.000001   0.000003  -0.003415
              19
     1  N    0.000000
     2  C    0.000000
     3  C   -0.000015
     4  C   -0.000001
     5  C    0.000017
     6  C   -0.003621
     7  C   -0.027478
     8  C    0.001208
     9  C    0.000067
    10  C    0.001134
    11  C   -0.023400
    12  C    0.382757
    13  N   -0.000189
    14  C    0.001679
    15  H    0.000000
    16  H   -0.000001
    17  H    0.000003
    18  H   -0.003415
    19  H    0.624896
 Mulliken charges:
               1
     1  N   -0.242667
     2  C    0.049298
     3  C   -0.033218
     4  C   -0.094003
     5  C   -0.093259
     6  C   -0.034126
     7  C   -0.013449
     8  C   -0.008421
     9  C   -0.143165
    10  C   -0.180351
    11  C   -0.116738
    12  C   -0.117466
    13  N   -0.244707
    14  C    0.045950
    15  H    0.060855
    16  H    0.061122
    17  H    0.030740
    18  H    0.027245
    19  H    0.046359
 Sum of Mulliken charges =  -1.00000
 Mulliken charges with hydrogens summed into heavy atoms:
               1
     1  N   -0.242667
     2  C    0.049298
     3  C   -0.033218
     4  C   -0.033148
     5  C   -0.032137
     6  C   -0.034126
     7  C   -0.013449
     8  C   -0.008421
     9  C   -0.112425
    10  C   -0.180351
    11  C   -0.089493
    12  C   -0.071107
    13  N   -0.244707
    14  C    0.045950
 Electronic spatial extent (au):  <R**2>=           2627.6477
 Charge=             -1.0000 electrons
 Dipole moment (field-independent basis, Debye):
    X=             -1.3001    Y=             -4.0998    Z=              0.1756  Tot=              4.3046
 Quadrupole moment (field-independent basis, Debye-Ang):
   XX=           -120.4249   YY=            -94.8785   ZZ=            -74.5445
   XY=             -5.4516   XZ=             -0.1801   YZ=              1.4149
 Traceless Quadrupole moment (field-independent basis, Debye-Ang):
   XX=            -23.8090   YY=              1.7375   ZZ=             22.0715
   XY=             -5.4516   XZ=             -0.1801   YZ=              1.4149
 Octapole moment (field-independent basis, Debye-Ang**2):
  XXX=             -5.5654  YYY=            -77.5996  ZZZ=              0.3941  XYY=            -15.4166
  XXY=             38.0059  XXZ=             -2.3333  XZZ=             -0.0079  YZZ=             -2.4331
  YYZ=              4.4816  XYZ=              2.0391
 Hexadecapole moment (field-independent basis, Debye-Ang**3):
 XXXX=          -2915.8553 YYYY=          -1519.1698 ZZZZ=            -62.2710 XXXY=            -22.3397
 XXXZ=            -12.3683 YYYX=            -63.9702 YYYZ=             19.4318 ZZZX=              1.4076
 ZZZY=              0.1365 XXYY=           -603.1376 XXZZ=           -335.3194 YYZZ=           -237.5233
 XXYZ=              4.0486 YYXZ=              4.1692 ZZXY=              0.1161
 N-N= 7.038235629920D+02 E-N=-2.729555160098D+03  KE= 5.546123089932D+02
 1\1\GINC-N004\FOpt\RB3LYP\STO-3G\C12H5N2(1-)\R2532\15-Jun-2021\0\\#N B
 3LYP/STO-3G OPT\\1Naph\\-1,1\N,1.1104341373,0.0917656824,0.2266597962\
 C,2.3093878518,0.043881999,0.172006057\C,3.7663856924,0.03644881,0.102
 5737236\C,4.4445102469,1.2820972313,0.0547215522\C,5.8489234225,1.3280
 440389,0.037711066\C,6.6062353563,0.1299659696,0.0342731949\C,5.953699
 0479,-1.1664159949,0.0388053303\C,4.4896954902,-1.2207440596,0.0676099
 686\C,3.8589337431,-2.5088529325,-0.0877280456\C,4.5416237125,-3.73669
 53202,-0.103623887\C,5.9594653824,-3.6118300109,0.134880944\C,6.667063
 6073,-2.4071455842,0.0371585581\N,9.25705259,0.3258569902,-0.001902551
 5\C,8.0604353135,0.2217147921,0.0189295812\H,3.8649746478,2.2137407695
 ,0.0351781657\H,6.3673559748,2.2949241309,0.0204973733\H,2.7743469718,
 -2.4669029228,-0.2864072331\H,6.5522512465,-4.5191994484,0.353415625\H
 ,7.7656255649,-2.3712741404,0.023130781\\Version=ES64L-G09RevD.01\Stat
 e=1-A\HF=-562.50693\RMSD=5.531e-09\RMSF=2.311e-05\Dipole=0.493611,1.61
 79576,0.0819396\Quadrupole=-17.5894896,1.2220231,16.3674665,-4.3005176
 ,0.6528672,-1.1764507\PG=C01 [X(C12H5N2)]\\@


 THE GREAT THING ABOUT BEING IMPERFECT IS THE JOY IT BRINGS OTHERS.
   -- SIGN OUTSIDE LAKE AGASSIZ JR. HIGH SCHOOL, FARGO, N.D.
 Job cpu time:       0 days  0 hours  5 minutes 52.2 seconds.
 File lengths (MBytes):  RWF=      5 Int=      0 D2E=      0 Chk=      2 Scr=      1
 Normal termination of Gaussian 09 at Tue Jun 15 11:20:26 2021.
