 Entering Gaussian System, Link 0=/usr/local/apps//g09/g09
 Input=1.com
 Output=1.out
 Initial command:
 /usr/local/apps//g09/l1.exe "/tmp/bnp.472638.sequoia/Gau-16858.inp" -scrdir="/tmp/bnp.472638.sequoia/"
 Entering Link 1 = /usr/local/apps//g09/l1.exe PID=     16859.
  
 Copyright (c) 1988,1990,1992,1993,1995,1998,2003,2009,2013,
            Gaussian, Inc.  All Rights Reserved.
  
 This is part of the Gaussian(R) 09 program.  It is based on
 the Gaussian(R) 03 system (copyright 2003, Gaussian, Inc.),
 the Gaussian(R) 98 system (copyright 1998, Gaussian, Inc.),
 the Gaussian(R) 94 system (copyright 1995, Gaussian, Inc.),
 the Gaussian 92(TM) system (copyright 1992, Gaussian, Inc.),
 the Gaussian 90(TM) system (copyright 1990, Gaussian, Inc.),
 the Gaussian 88(TM) system (copyright 1988, Gaussian, Inc.),
 the Gaussian 86(TM) system (copyright 1986, Carnegie Mellon
 University), and the Gaussian 82(TM) system (copyright 1983,
 Carnegie Mellon University). Gaussian is a federally registered
 trademark of Gaussian, Inc.
  
 This software contains proprietary and confidential information,
 including trade secrets, belonging to Gaussian, Inc.
  
 This software is provided under written license and may be
 used, copied, transmitted, or stored only in accord with that
 written license.
  
 The following legend is applicable only to US Government
 contracts under FAR:
  
                    RESTRICTED RIGHTS LEGEND
  
 Use, reproduction and disclosure by the US Government is
 subject to restrictions as set forth in subparagraphs (a)
 and (c) of the Commercial Computer Software - Restricted
 Rights clause in FAR 52.227-19.
  
 Gaussian, Inc.
 340 Quinnipiac St., Bldg. 40, Wallingford CT 06492
  
  
 ---------------------------------------------------------------
 Warning -- This program may not be used in any manner that
 competes with the business of Gaussian, Inc. or will provide
 assistance to any competitor of Gaussian, Inc.  The licensee
 of this program is prohibited from giving any competitor of
 Gaussian, Inc. access to this program.  By using this program,
 the user acknowledges that Gaussian, Inc. is engaged in the
 business of creating and licensing software in the field of
 computational chemistry and represents and warrants to the
 licensee that it is not a competitor of Gaussian, Inc. and that
 it will not use this program in any manner prohibited above.
 ---------------------------------------------------------------
  

 Cite this work as:
 Gaussian 09, Revision D.01,
 M. J. Frisch, G. W. Trucks, H. B. Schlegel, G. E. Scuseria, 
 M. A. Robb, J. R. Cheeseman, G. Scalmani, V. Barone, B. Mennucci, 
 G. A. Petersson, H. Nakatsuji, M. Caricato, X. Li, H. P. Hratchian, 
 A. F. Izmaylov, J. Bloino, G. Zheng, J. L. Sonnenberg, M. Hada, 
 M. Ehara, K. Toyota, R. Fukuda, J. Hasegawa, M. Ishida, T. Nakajima, 
 Y. Honda, O. Kitao, H. Nakai, T. Vreven, J. A. Montgomery, Jr., 
 J. E. Peralta, F. Ogliaro, M. Bearpark, J. J. Heyd, E. Brothers, 
 K. N. Kudin, V. N. Staroverov, T. Keith, R. Kobayashi, J. Normand, 
 K. Raghavachari, A. Rendell, J. C. Burant, S. S. Iyengar, J. Tomasi, 
 M. Cossi, N. Rega, J. M. Millam, M. Klene, J. E. Knox, J. B. Cross, 
 V. Bakken, C. Adamo, J. Jaramillo, R. Gomperts, R. E. Stratmann, 
 O. Yazyev, A. J. Austin, R. Cammi, C. Pomelli, J. W. Ochterski, 
 R. L. Martin, K. Morokuma, V. G. Zakrzewski, G. A. Voth, 
 P. Salvador, J. J. Dannenberg, S. Dapprich, A. D. Daniels, 
 O. Farkas, J. B. Foresman, J. V. Ortiz, J. Cioslowski, 
 and D. J. Fox, Gaussian, Inc., Wallingford CT, 2013.
 
 ******************************************
 Gaussian 09:  ES64L-G09RevD.01 24-Apr-2013
                15-Jun-2021 
 ******************************************
 -------------------
 #N B3LYP/STO-3G OPT
 -------------------
 1/14=-1,18=20,19=15,26=3,38=1/1,3;
 2/9=110,12=2,17=6,18=5,40=1/2;
 3/6=3,11=2,16=1,25=1,30=1,71=1,74=-5/1,2,3;
 4//1;
 5/5=2,38=5/2;
 6/7=2,8=2,9=2,10=2,28=1/1;
 7//1,2,3,16;
 1/14=-1,18=20,19=15,26=3/3(2);
 2/9=110/2;
 99//99;
 2/9=110/2;
 3/6=3,11=2,16=1,25=1,30=1,71=1,74=-5/1,2,3;
 4/5=5,16=3,69=1/1;
 5/5=2,38=5/2;
 7//1,2,3,16;
 1/14=-1,18=20,19=15,26=3/3(-5);
 2/9=110/2;
 6/7=2,8=2,9=2,10=2,19=2,28=1/1;
 99/9=1/99;
 -----
 2Naph
 -----
 Symbolic Z-matrix:
 Charge = -1 Multiplicity = 1
 N                     1.31815   0.40086   0.05402 
 C                     2.47472   0.32816   0.05373 
 C                     4.78097   1.27696   0.05344 
 C                     3.9029    0.17538   0.05373 
 C                     4.41508  -1.12499   0.05481 
 C                     5.7876   -1.33151   0.05501 
 C                     6.67631  -0.25964   0.05458 
 C                     6.19432   1.07317   0.05434 
 C                     7.16617   2.1071    0.05422 
 C                     8.53576   1.82311   0.05488 
 C                     8.97551   0.50447   0.05478 
 C                     8.047    -0.53254   0.05503 
 N                     3.81641   3.68971   0.05328 
 C                     4.24206   2.61168   0.05279 
 H                     3.75514  -1.98991   0.05577 
 H                     6.8709    3.15626   0.05387 
 H                     9.26148   2.63374   0.0546 
 H                     10.03951   0.28029   0.05543 
 H                     8.40465  -1.56133   0.0551 
 

 GradGradGradGradGradGradGradGradGradGradGradGradGradGradGradGradGradGrad
 Berny optimization.
 Initialization pass.
                           ----------------------------
                           !    Initial Parameters    !
                           ! (Angstroms and Degrees)  !
 --------------------------                            --------------------------
 ! Name  Definition              Value          Derivative Info.                !
 --------------------------------------------------------------------------------
 ! R1    R(1,2)                  1.1589         estimate D2E/DX2                !
 ! R2    R(2,4)                  1.4363         estimate D2E/DX2                !
 ! R3    R(3,4)                  1.4087         estimate D2E/DX2                !
 ! R4    R(3,8)                  1.428          estimate D2E/DX2                !
 ! R5    R(3,14)                 1.4394         estimate D2E/DX2                !
 ! R6    R(4,5)                  1.3976         estimate D2E/DX2                !
 ! R7    R(5,6)                  1.388          estimate D2E/DX2                !
 ! R8    R(5,15)                 1.0879         estimate D2E/DX2                !
 ! R9    R(6,7)                  1.3924         estimate D2E/DX2                !
 ! R10   R(7,8)                  1.4173         estimate D2E/DX2                !
 ! R11   R(7,12)                 1.3976         estimate D2E/DX2                !
 ! R12   R(8,9)                  1.419          estimate D2E/DX2                !
 ! R13   R(9,10)                 1.3987         estimate D2E/DX2                !
 ! R14   R(9,16)                 1.0899         estimate D2E/DX2                !
 ! R15   R(10,11)                1.39           estimate D2E/DX2                !
 ! R16   R(10,17)                1.088          estimate D2E/DX2                !
 ! R17   R(11,12)                1.3919         estimate D2E/DX2                !
 ! R18   R(11,18)                1.0874         estimate D2E/DX2                !
 ! R19   R(12,19)                1.0892         estimate D2E/DX2                !
 ! R20   R(13,14)                1.159          estimate D2E/DX2                !
 ! A1    A(4,3,8)              120.3535         estimate D2E/DX2                !
 ! A2    A(4,3,14)             119.4546         estimate D2E/DX2                !
 ! A3    A(8,3,14)             120.1919         estimate D2E/DX2                !
 ! A4    A(2,4,3)              122.4524         estimate D2E/DX2                !
 ! A5    A(2,4,5)              117.6041         estimate D2E/DX2                !
 ! A6    A(3,4,5)              119.9435         estimate D2E/DX2                !
 ! A7    A(4,5,6)              120.0551         estimate D2E/DX2                !
 ! A8    A(4,5,15)             121.158          estimate D2E/DX2                !
 ! A9    A(6,5,15)             118.7869         estimate D2E/DX2                !
 ! A10   A(5,6,7)              121.1059         estimate D2E/DX2                !
 ! A11   A(6,7,8)              120.4554         estimate D2E/DX2                !
 ! A12   A(6,7,12)             118.4027         estimate D2E/DX2                !
 ! A13   A(8,7,12)             121.1419         estimate D2E/DX2                !
 ! A14   A(3,8,7)              118.0866         estimate D2E/DX2                !
 ! A15   A(3,8,9)              125.0223         estimate D2E/DX2                !
 ! A16   A(7,8,9)              116.891          estimate D2E/DX2                !
 ! A17   A(8,9,10)             121.5127         estimate D2E/DX2                !
 ! A18   A(8,9,16)             121.0543         estimate D2E/DX2                !
 ! A19   A(10,9,16)            117.4329         estimate D2E/DX2                !
 ! A20   A(9,10,11)            120.1574         estimate D2E/DX2                !
 ! A21   A(9,10,17)            120.1221         estimate D2E/DX2                !
 ! A22   A(11,10,17)           119.7205         estimate D2E/DX2                !
 ! A23   A(10,11,12)           119.7167         estimate D2E/DX2                !
 ! A24   A(10,11,18)           120.3408         estimate D2E/DX2                !
 ! A25   A(12,11,18)           119.9424         estimate D2E/DX2                !
 ! A26   A(7,12,11)            120.5802         estimate D2E/DX2                !
 ! A27   A(7,12,19)            120.4297         estimate D2E/DX2                !
 ! A28   A(11,12,19)           118.99           estimate D2E/DX2                !
 ! A29   L(1,2,4,13,-1)        182.5092         estimate D2E/DX2                !
 ! A30   L(3,14,13,1,-1)       180.4409         estimate D2E/DX2                !
 ! A31   L(1,2,4,13,-2)        179.9853         estimate D2E/DX2                !
 ! A32   L(3,14,13,1,-2)       179.9479         estimate D2E/DX2                !
 ! D1    D(8,3,4,2)            179.9587         estimate D2E/DX2                !
 ! D2    D(8,3,4,5)             -0.0045         estimate D2E/DX2                !
 ! D3    D(14,3,4,2)            -0.0156         estimate D2E/DX2                !
 ! D4    D(14,3,4,5)          -179.9788         estimate D2E/DX2                !
 ! D5    D(4,3,8,7)              0.0431         estimate D2E/DX2                !
 ! D6    D(4,3,8,9)           -179.9964         estimate D2E/DX2                !
 ! D7    D(14,3,8,7)          -179.9828         estimate D2E/DX2                !
 ! D8    D(14,3,8,9)            -0.0223         estimate D2E/DX2                !
 ! D9    D(2,4,5,6)           -179.9929         estimate D2E/DX2                !
 ! D10   D(2,4,5,15)            -0.0092         estimate D2E/DX2                !
 ! D11   D(3,4,5,6)             -0.028          estimate D2E/DX2                !
 ! D12   D(3,4,5,15)           179.9558         estimate D2E/DX2                !
 ! D13   D(4,5,6,7)              0.0207         estimate D2E/DX2                !
 ! D14   D(15,5,6,7)          -179.9634         estimate D2E/DX2                !
 ! D15   D(5,6,7,8)              0.0195         estimate D2E/DX2                !
 ! D16   D(5,6,7,12)           179.9898         estimate D2E/DX2                !
 ! D17   D(6,7,8,3)             -0.0506         estimate D2E/DX2                !
 ! D18   D(6,7,8,9)            179.9857         estimate D2E/DX2                !
 ! D19   D(12,7,8,3)           179.9799         estimate D2E/DX2                !
 ! D20   D(12,7,8,9)             0.0162         estimate D2E/DX2                !
 ! D21   D(6,7,12,11)         -179.9928         estimate D2E/DX2                !
 ! D22   D(6,7,12,19)            0.0367         estimate D2E/DX2                !
 ! D23   D(8,7,12,11)           -0.0227         estimate D2E/DX2                !
 ! D24   D(8,7,12,19)         -179.9932         estimate D2E/DX2                !
 ! D25   D(3,8,9,10)          -179.9872         estimate D2E/DX2                !
 ! D26   D(3,8,9,16)             0.0289         estimate D2E/DX2                !
 ! D27   D(7,8,9,10)            -0.0263         estimate D2E/DX2                !
 ! D28   D(7,8,9,16)           179.9899         estimate D2E/DX2                !
 ! D29   D(8,9,10,11)            0.0427         estimate D2E/DX2                !
 ! D30   D(8,9,10,17)          179.9895         estimate D2E/DX2                !
 ! D31   D(16,9,10,11)        -179.9728         estimate D2E/DX2                !
 ! D32   D(16,9,10,17)          -0.026          estimate D2E/DX2                !
 ! D33   D(9,10,11,12)          -0.0479         estimate D2E/DX2                !
 ! D34   D(9,10,11,18)        -179.9916         estimate D2E/DX2                !
 ! D35   D(17,10,11,12)       -179.9949         estimate D2E/DX2                !
 ! D36   D(17,10,11,18)          0.0614         estimate D2E/DX2                !
 ! D37   D(10,11,12,7)           0.0381         estimate D2E/DX2                !
 ! D38   D(10,11,12,19)       -179.9909         estimate D2E/DX2                !
 ! D39   D(18,11,12,7)         179.9821         estimate D2E/DX2                !
 ! D40   D(18,11,12,19)         -0.0469         estimate D2E/DX2                !
 --------------------------------------------------------------------------------
 Trust Radius=3.00D-01 FncErr=1.00D-07 GrdErr=1.00D-06
 Number of steps in this run=    102 maximum allowed number of steps=    114.
 GradGradGradGradGradGradGradGradGradGradGradGradGradGradGradGradGradGrad

                          Input orientation:                          
 ---------------------------------------------------------------------
 Center     Atomic      Atomic             Coordinates (Angstroms)
 Number     Number       Type             X           Y           Z
 ---------------------------------------------------------------------
      1          7           0        1.318150    0.400860    0.054020
      2          6           0        2.474720    0.328160    0.053730
      3          6           0        4.780970    1.276960    0.053440
      4          6           0        3.902900    0.175380    0.053730
      5          6           0        4.415080   -1.124990    0.054810
      6          6           0        5.787600   -1.331510    0.055010
      7          6           0        6.676310   -0.259640    0.054580
      8          6           0        6.194320    1.073170    0.054340
      9          6           0        7.166170    2.107100    0.054220
     10          6           0        8.535760    1.823110    0.054880
     11          6           0        8.975510    0.504470    0.054780
     12          6           0        8.047000   -0.532540    0.055030
     13          7           0        3.816410    3.689710    0.053280
     14          6           0        4.242060    2.611680    0.052790
     15          1           0        3.755140   -1.989910    0.055770
     16          1           0        6.870900    3.156260    0.053870
     17          1           0        9.261480    2.633740    0.054600
     18          1           0       10.039510    0.280290    0.055430
     19          1           0        8.404650   -1.561330    0.055100
 ---------------------------------------------------------------------
                    Distance matrix (angstroms):
                    1          2          3          4          5
     1  N    0.000000
     2  C    1.158853   0.000000
     3  C    3.571929   2.493794   0.000000
     4  C    2.594566   1.436329   1.408718   0.000000
     5  C    3.452419   2.424179   2.429659   1.397602   0.000000
     6  C    4.793442   3.705358   2.795965   2.413051   1.387970
     7  C    5.398716   4.242507   2.439970   2.807320   2.421155
     8  C    4.922300   3.793477   1.427967   2.461023   2.828003
     9  C    6.091846   5.017403   2.525532   3.792159   4.244397
    10  C    7.356405   6.242682   3.794302   4.917154   5.066685
    11  C    7.658061   6.503181   4.265080   5.083274   4.842795
    12  C    6.793280   5.638361   3.733798   4.204131   3.679924
    13  N    4.130114   3.619413   2.598411   3.515394   4.851777
    14  C    3.665648   2.887552   1.439410   2.459794   3.740674
    15  H    3.413899   2.648193   3.424145   2.170327   1.087938
    16  H    6.198811   5.227289   2.810618   4.206503   4.935601
    17  H    8.251197   7.167692   4.681434   5.895584   6.133159
    18  H    8.722193   7.564942   5.352158   6.137507   5.797329
    19  H    7.353140   6.223684   4.602928   4.825134   4.013360
                    6          7          8          9         10
     6  C    0.000000
     7  C    1.392376   0.000000
     8  C    2.438833   1.417285   0.000000
     9  C    3.704658   2.416903   1.418980   0.000000
    10  C    4.183779   2.792025   2.458608   1.398724   0.000000
    11  C    3.678803   2.422846   2.838739   2.417051   1.390033
    12  C    2.396506   1.397593   2.451679   2.782726   2.405821
    13  N    5.394279   4.876105   3.535638   3.704801   5.075083
    14  C    4.235262   3.764313   2.485626   2.967326   4.365513
    15  H    2.136442   3.395154   3.915617   5.331099   6.115018
    16  H    4.616668   3.421438   2.190211   1.089918   2.132850
    17  H    5.271722   3.880045   3.441344   2.160480   1.088021
    18  H    4.547157   3.406265   3.926085   3.404896   2.154428
    19  H    2.627122   2.163690   3.438917   3.871849   3.386979
                   11         12         13         14         15
    11  C    0.000000
    12  C    1.391948   0.000000
    13  N    6.063173   5.977064   0.000000
    14  C    5.181302   4.935959   1.159020   0.000000
    15  H    5.785689   4.532548   5.679951   4.627281   0.000000
    16  H    3.385465   3.871751   3.100722   2.684654   6.015898
    17  H    2.148388   3.391208   5.546518   5.019469   7.190127
    18  H    1.087361   2.151927   7.095853   6.248665   6.681850
    19  H    2.143224   1.089184   6.973189   5.894164   4.669221
                   16         17         18         19
    16  H    0.000000
    17  H    2.447019   0.000000
    18  H    4.279170   2.478721   0.000000
    19  H    4.960650   4.281678   2.462586   0.000000
 Stoichiometry    C12H5N2(1-)
 Framework group  C1[X(C12H5N2)]
 Deg. of freedom    51
 Full point group                 C1      NOp   1
 Largest Abelian subgroup         C1      NOp   1
 Largest concise Abelian subgroup C1      NOp   1
                         Standard orientation:                         
 ---------------------------------------------------------------------
 Center     Atomic      Atomic             Coordinates (Angstroms)
 Number     Number       Type             X           Y           Z
 ---------------------------------------------------------------------
      1          7           0       -4.176374   -0.528114    0.000425
      2          6           0       -3.017956   -0.559851   -0.000094
      3          6           0       -0.746717    0.469945   -0.000491
      4          6           0       -1.585265   -0.662009   -0.000396
      5          6           0       -1.027401   -1.943446    0.000180
      6          6           0        0.351566   -2.101280    0.000070
      7          6           0        1.201799   -0.998640   -0.000177
      8          6           0        0.672958    0.316284    0.000093
      9          6           0        1.607622    1.383949    0.000129
     10          6           0        2.986401    1.148590    0.000455
     11          6           0        3.472527   -0.153667   -0.000142
     12          6           0        2.581285   -1.222877   -0.000057
     13          7           0       -1.796031    2.847061    0.000287
     14          6           0       -1.332509    1.784765   -0.000621
     15          1           0       -1.656329   -2.831172    0.000982
     16          1           0        1.275419    2.422006    0.000165
     17          1           0        3.682989    1.984387    0.000304
     18          1           0        4.543792   -0.340065    0.000248
     19          1           0        2.975108   -2.238370   -0.000378
 ---------------------------------------------------------------------
 Rotational constants (GHZ):      1.4082881      0.5592276      0.4002782
 Standard basis: STO-3G (5D, 7F)
 There are    75 symmetry adapted cartesian basis functions of A   symmetry.
 There are    75 symmetry adapted basis functions of A   symmetry.
    75 basis functions,   225 primitive gaussians,    75 cartesian basis functions
    46 alpha electrons       46 beta electrons
       nuclear repulsion energy       715.8247932429 Hartrees.
 NAtoms=   19 NActive=   19 NUniq=   19 SFac= 1.00D+00 NAtFMM=   60 NAOKFM=F Big=F
 Integral buffers will be    131072 words long.
 Raffenetti 2 integral format.
 Two-electron integral symmetry is turned on.
 One-electron integrals computed using PRISM.
 NBasis=    75 RedAO= T EigKep=  1.53D-01  NBF=    75
 NBsUse=    75 1.00D-06 EigRej= -1.00D+00 NBFU=    75
 ExpMin= 1.69D-01 ExpMax= 9.91D+01 ExpMxC= 9.91D+01 IAcc=1 IRadAn=         1 AccDes= 0.00D+00
 Harris functional with IExCor=  402 and IRadAn=       1 diagonalized for initial guess.
 HarFok:  IExCor=  402 AccDes= 0.00D+00 IRadAn=         1 IDoV= 1 UseB2=F ITyADJ=14
 ICtDFT=  3500011 ScaDFX=  1.000000  1.000000  1.000000  1.000000
 FoFCou: FMM=F IPFlag=           0 FMFlag=      100000 FMFlg1=           0
         NFxFlg=           0 DoJE=T BraDBF=F KetDBF=T FulRan=T
         wScrn=  0.000000 ICntrl=     500 IOpCl=  0 I1Cent=   200000004 NGrid=           0
         NMat0=    1 NMatS0=      1 NMatT0=    0 NMatD0=    1 NMtDS0=    0 NMtDT0=    0
 Petite list used in FoFCou.
 Keep R1 ints in memory in canonical form, NReq=4993994.
 Requested convergence on RMS density matrix=1.00D-08 within 128 cycles.
 Requested convergence on MAX density matrix=1.00D-06.
 Requested convergence on             energy=1.00D-06.
 No special actions if energy rises.
 Integral accuracy reduced to 1.0D-05 until final iterations.
 Initial convergence to 1.0D-05 achieved.  Increase integral accuracy.
 SCF Done:  E(RB3LYP) =  -562.481585184     A.U. after   27 cycles
            NFock= 27  Conv=0.46D-08     -V/T= 2.0128

 **********************************************************************

            Population analysis using the SCF density.

 **********************************************************************

 Orbital symmetries:
       Occupied  (A) (A) (A) (A) (A) (A) (A) (A) (A) (A) (A) (A)
                 (A) (A) (A) (A) (A) (A) (A) (A) (A) (A) (A) (A)
                 (A) (A) (A) (A) (A) (A) (A) (A) (A) (A) (A) (A)
                 (A) (A) (A) (A) (A) (A) (A) (A) (A) (A)
       Virtual   (A) (A) (A) (A) (A) (A) (A) (A) (A) (A) (A) (A)
                 (A) (A) (A) (A) (A) (A) (A) (A) (A) (A) (A) (A)
                 (A) (A) (A) (A) (A)
 The electronic state is 1-A.
 Alpha  occ. eigenvalues --  -13.97584 -13.96866  -9.88949  -9.88153  -9.87844
 Alpha  occ. eigenvalues --   -9.87668  -9.86992  -9.86799  -9.86141  -9.86059
 Alpha  occ. eigenvalues --   -9.85744  -9.83218  -9.80564  -9.65190  -0.73049
 Alpha  occ. eigenvalues --   -0.72331  -0.67725  -0.63511  -0.57110  -0.56141
 Alpha  occ. eigenvalues --   -0.52082  -0.45438  -0.41999  -0.40852  -0.34646
 Alpha  occ. eigenvalues --   -0.33274  -0.31606  -0.25511  -0.25097  -0.24124
 Alpha  occ. eigenvalues --   -0.22558  -0.21115  -0.20302  -0.17380  -0.16439
 Alpha  occ. eigenvalues --   -0.15619  -0.14186  -0.13761  -0.13213  -0.12755
 Alpha  occ. eigenvalues --   -0.11051  -0.10292  -0.06824  -0.04160   0.01724
 Alpha  occ. eigenvalues --    0.14480
 Alpha virt. eigenvalues --    0.17768   0.22553   0.24642   0.28886   0.29650
 Alpha virt. eigenvalues --    0.32285   0.36610   0.39054   0.45548   0.49172
 Alpha virt. eigenvalues --    0.49283   0.52602   0.54100   0.58630   0.60410
 Alpha virt. eigenvalues --    0.62037   0.63225   0.65392   0.71616   0.73158
 Alpha virt. eigenvalues --    0.74345   0.77688   0.82256   0.86340   0.89180
 Alpha virt. eigenvalues --    0.97324   1.00990   1.13891   1.18380
          Condensed to atoms (all electrons):
               1          2          3          4          5          6
     1  N    6.581293   0.685485  -0.000026  -0.011002  -0.000333  -0.000002
     2  C    0.685485   4.905278  -0.030309   0.418426  -0.031215   0.001195
     3  C   -0.000026  -0.030309   4.797951   0.494175  -0.034079  -0.013222
     4  C   -0.011002   0.418426   0.494175   4.782238   0.466963  -0.027940
     5  C   -0.000333  -0.031215  -0.034079   0.466963   4.897195   0.483559
     6  C   -0.000002   0.001195  -0.013222  -0.027940   0.483559   5.437066
     7  C    0.000000   0.000040  -0.032170  -0.011668  -0.029677   0.448751
     8  C   -0.000002   0.000847   0.473839  -0.026842  -0.011368  -0.029275
     9  C    0.000000  -0.000004  -0.027934   0.000720   0.000057   0.001151
    10  C    0.000000   0.000000   0.000766  -0.000007   0.000001   0.000036
    11  C    0.000000   0.000000   0.000029   0.000001  -0.000019   0.001177
    12  C    0.000000   0.000000   0.000925  -0.000019   0.001521  -0.044407
    13  N   -0.000009  -0.000038  -0.011737  -0.000146  -0.000001   0.000000
    14  C   -0.000017  -0.003248   0.431180  -0.031725   0.000892   0.000016
    15  H    0.000112  -0.003965   0.001191  -0.033612   0.390063  -0.036911
    16  H    0.000000  -0.000001  -0.003054   0.000008  -0.000003  -0.000030
    17  H    0.000000   0.000000  -0.000016   0.000000   0.000000   0.000001
    18  H    0.000000   0.000000   0.000001   0.000000   0.000000  -0.000028
    19  H    0.000000   0.000000  -0.000017   0.000000   0.000045  -0.002403
               7          8          9         10         11         12
     1  N    0.000000  -0.000002   0.000000   0.000000   0.000000   0.000000
     2  C    0.000040   0.000847  -0.000004   0.000000   0.000000   0.000000
     3  C   -0.032170   0.473839  -0.027934   0.000766   0.000029   0.000925
     4  C   -0.011668  -0.026842   0.000720  -0.000007   0.000001  -0.000019
     5  C   -0.029677  -0.011368   0.000057   0.000001  -0.000019   0.001521
     6  C    0.448751  -0.029275   0.001151   0.000036   0.001177  -0.044407
     7  C    4.827452   0.451449  -0.029233  -0.011444  -0.030306   0.484432
     8  C    0.451449   4.801197   0.475835  -0.027262  -0.009120  -0.035647
     9  C   -0.029233   0.475835   4.839312   0.520034  -0.030935  -0.011974
    10  C   -0.011444  -0.027262   0.520034   4.819323   0.492092  -0.030615
    11  C   -0.030306  -0.009120  -0.030935   0.492092   4.837800   0.513211
    12  C    0.484432  -0.035647  -0.011974  -0.030615   0.513211   4.831217
    13  N   -0.000001  -0.000078  -0.000104   0.000000   0.000000   0.000000
    14  C    0.000875  -0.029352  -0.004226   0.000014   0.000000  -0.000008
    15  H    0.002128  -0.000044   0.000001   0.000000   0.000000  -0.000003
    16  H    0.001414  -0.024572   0.385751  -0.028427   0.001554   0.000019
    17  H    0.000037   0.001354  -0.025705   0.390381  -0.027030   0.001546
    18  H    0.001506   0.000009   0.001518  -0.026830   0.389795  -0.026285
    19  H   -0.024421   0.001487   0.000029   0.001546  -0.027693   0.389292
              13         14         15         16         17         18
     1  N   -0.000009  -0.000017   0.000112   0.000000   0.000000   0.000000
     2  C   -0.000038  -0.003248  -0.003965  -0.000001   0.000000   0.000000
     3  C   -0.011737   0.431180   0.001191  -0.003054  -0.000016   0.000001
     4  C   -0.000146  -0.031725  -0.033612   0.000008   0.000000   0.000000
     5  C   -0.000001   0.000892   0.390063  -0.000003   0.000000   0.000000
     6  C    0.000000   0.000016  -0.036911  -0.000030   0.000001  -0.000028
     7  C   -0.000001   0.000875   0.002128   0.001414   0.000037   0.001506
     8  C   -0.000078  -0.029352  -0.000044  -0.024572   0.001354   0.000009
     9  C   -0.000104  -0.004226   0.000001   0.385751  -0.025705   0.001518
    10  C    0.000000   0.000014   0.000000  -0.028427   0.390381  -0.026830
    11  C    0.000000   0.000000   0.000000   0.001554  -0.027030   0.389795
    12  C    0.000000  -0.000008  -0.000003   0.000019   0.001546  -0.026285
    13  N    6.589731   0.686405   0.000000  -0.000108   0.000000   0.000000
    14  C    0.686405   4.893691  -0.000021   0.001275   0.000000   0.000000
    15  H    0.000000  -0.000021   0.644758   0.000000   0.000000   0.000000
    16  H   -0.000108   0.001275   0.000000   0.610349  -0.004157  -0.000041
    17  H    0.000000   0.000000   0.000000  -0.004157   0.614374  -0.003900
    18  H    0.000000   0.000000   0.000000  -0.000041  -0.003900   0.620088
    19  H    0.000000   0.000000  -0.000005   0.000003  -0.000041  -0.003997
              19
     1  N    0.000000
     2  C    0.000000
     3  C   -0.000017
     4  C    0.000000
     5  C    0.000045
     6  C   -0.002403
     7  C   -0.024421
     8  C    0.001487
     9  C    0.000029
    10  C    0.001546
    11  C   -0.027693
    12  C    0.389292
    13  N    0.000000
    14  C    0.000000
    15  H   -0.000005
    16  H    0.000003
    17  H   -0.000041
    18  H   -0.003997
    19  H    0.597478
 Mulliken charges:
               1
     1  N   -0.255501
     2  C    0.057508
     3  C   -0.047494
     4  C   -0.019574
     5  C   -0.133603
     6  C   -0.218735
     7  C   -0.049164
     8  C   -0.012455
     9  C   -0.094293
    10  C   -0.099607
    11  C   -0.110556
    12  C   -0.073205
    13  N   -0.263915
    14  C    0.054247
    15  H    0.036309
    16  H    0.060019
    17  H    0.053157
    18  H    0.048163
    19  H    0.068697
 Sum of Mulliken charges =  -1.00000
 Mulliken charges with hydrogens summed into heavy atoms:
               1
     1  N   -0.255501
     2  C    0.057508
     3  C   -0.047494
     4  C   -0.019574
     5  C   -0.097293
     6  C   -0.218735
     7  C   -0.049164
     8  C   -0.012455
     9  C   -0.034273
    10  C   -0.046451
    11  C   -0.062393
    12  C   -0.004507
    13  N   -0.263915
    14  C    0.054247
 Electronic spatial extent (au):  <R**2>=           2586.4951
 Charge=             -1.0000 electrons
 Dipole moment (field-independent basis, Debye):
    X=              4.7024    Y=              1.4124    Z=              0.0017  Tot=              4.9099
 Quadrupole moment (field-independent basis, Debye-Ang):
   XX=           -105.8966   YY=            -97.9579   ZZ=            -73.8166
   XY=              6.8652   XZ=              0.0100   YZ=             -0.0093
 Traceless Quadrupole moment (field-independent basis, Debye-Ang):
   XX=            -13.3395   YY=             -5.4009   ZZ=             18.7405
   XY=              6.8652   XZ=              0.0100   YZ=             -0.0093
 Octapole moment (field-independent basis, Debye-Ang**2):
  XXX=            107.3020  YYY=              0.1754  ZZZ=              0.0036  XYY=             19.0095
  XXY=             -1.9540  XXZ=             -0.0133  XZZ=             -6.8008  YZZ=              1.8018
  YYZ=              0.0139  XYZ=             -0.0071
 Hexadecapole moment (field-independent basis, Debye-Ang**3):
 XXXX=          -2840.7815 YYYY=          -1177.3619 ZZZZ=            -57.9824 XXXY=            -37.3121
 XXXZ=              0.1018 YYYX=            103.1322 YYYZ=             -0.0852 ZZZX=             -0.0029
 ZZZY=             -0.0038 XXYY=           -584.5597 XXZZ=           -396.9063 YYZZ=           -170.7268
 XXYZ=             -0.0001 YYXZ=              0.0278 ZZXY=             -3.1290
 N-N= 7.158247932429D+02 E-N=-2.754137835484D+03  KE= 5.553688075068D+02
 Calling FoFJK, ICntrl=      2127 FMM=F ISym2X=0 I1Cent= 0 IOpClX= 0 NMat=1 NMatS=1 NMatT=0.
 ***** Axes restored to original set *****
 -------------------------------------------------------------------
 Center     Atomic                   Forces (Hartrees/Bohr)
 Number     Number              X              Y              Z
 -------------------------------------------------------------------
      1        7          -0.111483426    0.003782575    0.000070952
      2        6           0.087728736    0.009886098   -0.000186343
      3        6          -0.006438224    0.017521993   -0.000024485
      4        6          -0.013344219   -0.000892439    0.000013745
      5        6           0.024383572    0.001193786    0.000161394
      6        6           0.002520826   -0.098502046   -0.000191925
      7        6          -0.026301775    0.004613228    0.000162705
      8        6           0.013883521    0.024169954   -0.000055699
      9        6           0.015657962    0.018101191    0.000041193
     10        6          -0.021204792    0.020994892   -0.000114049
     11        6           0.009632234   -0.027940721    0.000124799
     12        6           0.039820998    0.012193566   -0.000140437
     13        7          -0.040296096    0.102385803    0.000010436
     14        6           0.036692111   -0.089611162   -0.000009119
     15        1          -0.015531803   -0.003162332    0.000069063
     16        1          -0.005788488    0.006982473    0.000037689
     17        1           0.004026059    0.007290013    0.000018356
     18        1           0.008679642   -0.000481505   -0.000009496
     19        1          -0.002636838   -0.008525368    0.000021222
 -------------------------------------------------------------------
 Cartesian Forces:  Max     0.111483426 RMS     0.032083148

 GradGradGradGradGradGradGradGradGradGradGradGradGradGradGradGradGradGrad
 Berny optimization.
 FormGI is forming the generalized inverse of G from B-inverse, IUseBI=4.
 Internal  Forces:  Max     0.111501278 RMS     0.022024411
 Search for a local minimum.
 Step number   1 out of a maximum of  102
 All quantities printed in internal units (Hartrees-Bohrs-Radians)
 Mixed Optimization -- RFO/linear search
 Second derivative matrix not updated -- first step.
 ITU=  0
     Eigenvalues ---    0.01608   0.01608   0.01819   0.01836   0.01874
     Eigenvalues ---    0.01943   0.01984   0.02036   0.02041   0.02085
     Eigenvalues ---    0.02153   0.02156   0.02161   0.02182   0.02185
     Eigenvalues ---    0.02208   0.04879   0.04879   0.16000   0.16000
     Eigenvalues ---    0.16000   0.16000   0.16000   0.22000   0.22568
     Eigenvalues ---    0.23365   0.24489   0.25000   0.25000   0.25000
     Eigenvalues ---    0.25000   0.34822   0.34907   0.35042   0.35052
     Eigenvalues ---    0.35119   0.38135   0.39666   0.40093   0.40145
     Eigenvalues ---    0.40538   0.42869   0.43749   0.45069   0.45765
     Eigenvalues ---    0.45930   0.46036   0.46973   0.47130   1.28437
     Eigenvalues ---    1.28547
 RFO step:  Lambda=-6.50087861D-02 EMin= 1.60819803D-02
 Linear search not attempted -- first point.
 Maximum step size (   0.300) exceeded in Quadratic search.
    -- Step size scaled by   0.815
 Iteration  1 RMS(Cart)=  0.04844337 RMS(Int)=  0.00120076
 Iteration  2 RMS(Cart)=  0.00217577 RMS(Int)=  0.00027267
 Iteration  3 RMS(Cart)=  0.00000121 RMS(Int)=  0.00027266
 Iteration  4 RMS(Cart)=  0.00000000 RMS(Int)=  0.00027266
 Variable       Old X    -DE/DX   Delta X   Delta X   Delta X     New X
                                 (Linear)    (Quad)   (Total)
    R1        2.18991   0.11150   0.00000   0.06733   0.06733   2.25724
    R2        2.71427   0.02507   0.00000   0.04388   0.04388   2.75815
    R3        2.66209   0.01850   0.00000   0.02731   0.02695   2.68904
    R4        2.69847   0.01418   0.00000   0.02311   0.02260   2.72107
    R5        2.72009   0.01320   0.00000   0.02331   0.02331   2.74340
    R6        2.64109   0.04419   0.00000   0.06723   0.06738   2.70846
    R7        2.62288   0.02975   0.00000   0.04574   0.04624   2.66912
    R8        2.05590   0.01194   0.00000   0.02342   0.02342   2.07933
    R9        2.63121   0.06564   0.00000   0.10254   0.10289   2.73410
   R10        2.67828   0.04814   0.00000   0.08271   0.08276   2.76104
   R11        2.64107   0.04122   0.00000   0.06579   0.06606   2.70713
   R12        2.68148   0.01754   0.00000   0.02879   0.02869   2.71018
   R13        2.64320  -0.00428   0.00000  -0.00848  -0.00875   2.63446
   R14        2.05965   0.00829   0.00000   0.01636   0.01636   2.07600
   R15        2.62678   0.03545   0.00000   0.05221   0.05203   2.67881
   R16        2.05606   0.00812   0.00000   0.01593   0.01593   2.07199
   R17        2.63040   0.00813   0.00000   0.01267   0.01275   2.64316
   R18        2.05481   0.00859   0.00000   0.01683   0.01683   2.07165
   R19        2.05826   0.00719   0.00000   0.01415   0.01415   2.07241
   R20        2.19023   0.11003   0.00000   0.06649   0.06649   2.25672
    A1        2.10056  -0.00479   0.00000  -0.01893  -0.01989   2.08067
    A2        2.08488   0.00449   0.00000   0.01489   0.01537   2.10024
    A3        2.09774   0.00030   0.00000   0.00404   0.00452   2.10227
    A4        2.13720  -0.01426   0.00000  -0.03333  -0.03319   2.10401
    A5        2.05258   0.00873   0.00000   0.02619   0.02633   2.07891
    A6        2.09341   0.00554   0.00000   0.00714   0.00686   2.10027
    A7        2.09536   0.02463   0.00000   0.06879   0.06942   2.16478
    A8        2.11461  -0.02304   0.00000  -0.07325  -0.07357   2.04104
    A9        2.07322  -0.00159   0.00000   0.00446   0.00415   2.07737
   A10        2.11370  -0.04715   0.00000  -0.11488  -0.11350   2.00019
   A11        2.10234   0.02189   0.00000   0.05938   0.05938   2.16172
   A12        2.06652   0.00356   0.00000   0.00357   0.00325   2.06976
   A13        2.11433  -0.02545   0.00000  -0.06295  -0.06262   2.05170
   A14        2.06100  -0.00012   0.00000  -0.00151  -0.00227   2.05874
   A15        2.18205  -0.01409   0.00000  -0.03761  -0.03726   2.14479
   A16        2.04013   0.01421   0.00000   0.03912   0.03953   2.07966
   A17        2.12080  -0.00227   0.00000  -0.01028  -0.01070   2.11010
   A18        2.11280  -0.00265   0.00000  -0.00859  -0.00838   2.10441
   A19        2.04959   0.00493   0.00000   0.01888   0.01908   2.06868
   A20        2.09714   0.00479   0.00000   0.00754   0.00704   2.10418
   A21        2.09653  -0.00431   0.00000  -0.01071  -0.01046   2.08607
   A22        2.08952  -0.00048   0.00000   0.00317   0.00342   2.09294
   A23        2.08945   0.00165   0.00000   0.00239   0.00226   2.09171
   A24        2.10034  -0.00218   0.00000  -0.00610  -0.00603   2.09431
   A25        2.09339   0.00053   0.00000   0.00371   0.00378   2.09717
   A26        2.10452   0.00708   0.00000   0.02418   0.02450   2.12902
   A27        2.10190  -0.00899   0.00000  -0.03182  -0.03198   2.06991
   A28        2.07677   0.00190   0.00000   0.00764   0.00748   2.08425
   A29        3.18539   0.00705   0.00000   0.07086   0.07086   3.25624
   A30        3.14929   0.00027   0.00000   0.00191   0.00191   3.15120
   A31        3.14134  -0.00009   0.00000  -0.00090  -0.00090   3.14044
   A32        3.14068   0.00008   0.00000   0.00055   0.00055   3.14123
    D1        3.14087   0.00003   0.00000   0.00028   0.00024   3.14112
    D2       -0.00008   0.00001   0.00000   0.00011   0.00009   0.00001
    D3       -0.00027   0.00002   0.00000   0.00019   0.00017  -0.00010
    D4       -3.14122   0.00000   0.00000   0.00002   0.00001  -3.14121
    D5        0.00075   0.00003   0.00000   0.00028   0.00028   0.00103
    D6       -3.14153   0.00003   0.00000   0.00027   0.00028  -3.14125
    D7       -3.14129   0.00004   0.00000   0.00037   0.00035  -3.14094
    D8       -0.00039   0.00004   0.00000   0.00036   0.00036  -0.00003
    D9       -3.14147  -0.00009   0.00000  -0.00088  -0.00090   3.14081
   D10       -0.00016  -0.00004   0.00000  -0.00037  -0.00039  -0.00055
   D11       -0.00049  -0.00008   0.00000  -0.00074  -0.00077  -0.00126
   D12        3.14082  -0.00003   0.00000  -0.00024  -0.00026   3.14057
   D13        0.00036   0.00010   0.00000   0.00092   0.00091   0.00127
   D14       -3.14095   0.00005   0.00000   0.00044   0.00040  -3.14055
   D15        0.00034  -0.00005   0.00000  -0.00049  -0.00048  -0.00014
   D16        3.14141  -0.00004   0.00000  -0.00028  -0.00026   3.14115
   D17       -0.00088  -0.00002   0.00000  -0.00013  -0.00011  -0.00099
   D18        3.14134  -0.00001   0.00000  -0.00009  -0.00008   3.14126
   D19        3.14124  -0.00004   0.00000  -0.00036  -0.00034   3.14090
   D20        0.00028  -0.00003   0.00000  -0.00032  -0.00032  -0.00003
   D21       -3.14147   0.00001   0.00000   0.00016   0.00016  -3.14131
   D22        0.00064  -0.00003   0.00000  -0.00020  -0.00020   0.00044
   D23       -0.00040   0.00004   0.00000   0.00040   0.00039   0.00000
   D24       -3.14147   0.00000   0.00000   0.00004   0.00003  -3.14144
   D25       -3.14137   0.00002   0.00000   0.00022   0.00022  -3.14115
   D26        0.00050   0.00003   0.00000   0.00027   0.00027   0.00077
   D27       -0.00046   0.00002   0.00000   0.00020   0.00020  -0.00025
   D28        3.14142   0.00002   0.00000   0.00025   0.00026  -3.14151
   D29        0.00075  -0.00002   0.00000  -0.00017  -0.00017   0.00058
   D30        3.14141   0.00001   0.00000   0.00009   0.00009   3.14150
   D31       -3.14112  -0.00003   0.00000  -0.00022  -0.00022  -3.14134
   D32       -0.00045   0.00000   0.00000   0.00003   0.00003  -0.00042
   D33       -0.00084   0.00002   0.00000   0.00023   0.00023  -0.00061
   D34       -3.14145   0.00000   0.00000   0.00003   0.00003  -3.14142
   D35       -3.14150   0.00000   0.00000  -0.00002  -0.00002  -3.14152
   D36        0.00107  -0.00002   0.00000  -0.00022  -0.00022   0.00085
   D37        0.00067  -0.00004   0.00000  -0.00034  -0.00035   0.00032
   D38       -3.14143   0.00000   0.00000   0.00000   0.00000  -3.14143
   D39        3.14128  -0.00002   0.00000  -0.00015  -0.00015   3.14113
   D40       -0.00082   0.00002   0.00000   0.00020   0.00020  -0.00062
         Item               Value     Threshold  Converged?
 Maximum Force            0.111501     0.000450     NO 
 RMS     Force            0.022024     0.000300     NO 
 Maximum Displacement     0.273069     0.001800     NO 
 RMS     Displacement     0.047454     0.001200     NO 
 Predicted change in Energy=-3.430719D-02
 GradGradGradGradGradGradGradGradGradGradGradGradGradGradGradGradGradGrad

                          Input orientation:                          
 ---------------------------------------------------------------------
 Center     Atomic      Atomic             Coordinates (Angstroms)
 Number     Number       Type             X           Y           Z
 ---------------------------------------------------------------------
      1          7           0        1.257727    0.400447    0.054404
      2          6           0        2.451894    0.373084    0.053388
      3          6           0        4.782169    1.287614    0.053429
      4          6           0        3.897656    0.172939    0.053797
      5          6           0        4.416675   -1.163041    0.055173
      6          6           0        5.794003   -1.476012    0.054767
      7          6           0        6.672859   -0.326704    0.054490
      8          6           0        6.203497    1.056933    0.054446
      9          6           0        7.165108    2.120947    0.054579
     10          6           0        8.532623    1.850017    0.055055
     11          6           0        9.002416    0.512561    0.054712
     12          6           0        8.088484   -0.546251    0.054626
     13          7           0        3.834651    3.758058    0.052176
     14          6           0        4.256420    2.640812    0.052518
     15          1           0        3.682891   -1.982974    0.056401
     16          1           0        6.838052    3.169708    0.054623
     17          1           0        9.248044    2.680909    0.055055
     18          1           0       10.079834    0.310133    0.055255
     19          1           0        8.459637   -1.578210    0.054514
 ---------------------------------------------------------------------
                    Distance matrix (angstroms):
                    1          2          3          4          5
     1  N    0.000000
     2  C    1.194480   0.000000
     3  C    3.634385   2.503307   0.000000
     4  C    2.649714   1.459550   1.422977   0.000000
     5  C    3.524691   2.494003   2.477760   1.433256   0.000000
     6  C    4.909062   3.819536   2.943032   2.513001   1.412439
     7  C    5.463734   4.278580   2.486107   2.819821   2.406205
     8  C    4.989149   3.813420   1.439926   2.469483   2.849739
     9  C    6.152826   5.026870   2.524450   3.804075   4.282343
    10  C    7.417909   6.257524   3.792388   4.929049   5.100936
    11  C    7.745500   6.552008   4.290827   5.116046   4.882281
    12  C    6.896048   5.711071   3.780844   4.252091   3.723253
    13  N    4.232504   3.656510   2.645919   3.585673   4.955398
    14  C    3.743180   2.898087   1.451744   2.493815   3.807228
    15  H    3.400311   2.658265   3.450386   2.166585   1.100332
    16  H    6.229673   5.201874   2.787281   4.198399   4.963444
    17  H    8.309372   7.177305   4.678174   5.909024   6.173983
    18  H    8.822569   7.628200   5.387089   6.183700   5.851633
    19  H    7.468775   6.316687   4.662266   4.886533   4.064223
                    6          7          8          9         10
     6  C    0.000000
     7  C    1.446823   0.000000
     8  C    2.565832   1.461078   0.000000
     9  C    3.849422   2.496659   1.434163   0.000000
    10  C    4.308423   2.863012   2.460450   1.394095   0.000000
    11  C    3.774697   2.476127   2.851367   2.441845   1.417566
    12  C    2.475702   1.432549   2.474546   2.822512   2.437081
    13  N    5.588789   4.974003   3.592703   3.711076   5.070659
    14  C    4.394588   3.826922   2.509937   2.954781   4.348710
    15  H    2.171130   3.418061   3.948986   5.382194   6.181563
    16  H    4.761591   3.500312   2.206010   1.098574   2.147826
    17  H    5.404664   3.959458   3.450589   2.156891   1.096452
    18  H    4.643130   3.465984   3.947620   3.431425   2.182912
    19  H    2.667593   2.181478   3.469027   3.919129   3.429004
                   11         12         13         14         15
    11  C    0.000000
    12  C    1.398698   0.000000
    13  N    6.102381   6.051627   0.000000
    14  C    5.201340   4.984184   1.194206   0.000000
    15  H    5.875802   4.633943   5.743039   4.659222   0.000000
    16  H    3.427084   3.920706   3.060487   2.635253   6.041951
    17  H    2.182215   3.429160   5.519518   4.991785   7.261042
    18  H    1.096269   2.167687   7.133759   6.272497   6.795529
    19  H    2.160078   1.096674   7.061605   5.955434   4.793865
                   16         17         18         19
    16  H    0.000000
    17  H    2.459062   0.000000
    18  H    4.322768   2.512460   0.000000
    19  H    5.017197   4.331476   2.488147   0.000000
 Stoichiometry    C12H5N2(1-)
 Framework group  C1[X(C12H5N2)]
 Deg. of freedom    51
 Full point group                 C1      NOp   1
 Largest Abelian subgroup         C1      NOp   1
 Largest concise Abelian subgroup C1      NOp   1
                         Standard orientation:                         
 ---------------------------------------------------------------------
 Center     Atomic      Atomic             Coordinates (Angstroms)
 Number     Number       Type             X           Y           Z
 ---------------------------------------------------------------------
      1          7           0       -4.235069   -0.547653    0.000877
      2          6           0       -3.040769   -0.526933   -0.000366
      3          6           0       -0.749187    0.480638   -0.000388
      4          6           0       -1.588124   -0.668732   -0.000299
      5          6           0       -1.015758   -1.982741    0.000456
      6          6           0        0.373050   -2.240028   -0.000324
      7          6           0        1.204939   -1.056281   -0.000308
      8          6           0        0.680273    0.307345    0.000279
      9          6           0        1.598284    1.409198    0.000657
     10          6           0        2.975595    1.193523    0.000776
     11          6           0        3.498833   -0.123942   -0.000179
     12          6           0        2.628254   -1.218678   -0.000516
     13          7           0       -1.795362    2.910948   -0.000495
     14          6           0       -1.328970    1.811582   -0.000671
     15          1           0       -1.715949   -2.831542    0.001494
     16          1           0        1.229285    2.443946    0.001174
     17          1           0        3.656996    2.052534    0.000975
     18          1           0        4.583525   -0.282846    0.000088
     19          1           0        3.040638   -2.234864   -0.001102
 ---------------------------------------------------------------------
 Rotational constants (GHZ):      1.3372996      0.5510776      0.3902589
 Standard basis: STO-3G (5D, 7F)
 There are    75 symmetry adapted cartesian basis functions of A   symmetry.
 There are    75 symmetry adapted basis functions of A   symmetry.
    75 basis functions,   225 primitive gaussians,    75 cartesian basis functions
    46 alpha electrons       46 beta electrons
       nuclear repulsion energy       704.8893339675 Hartrees.
 NAtoms=   19 NActive=   19 NUniq=   19 SFac= 1.00D+00 NAtFMM=   60 NAOKFM=F Big=F
 Integral buffers will be    131072 words long.
 Raffenetti 2 integral format.
 Two-electron integral symmetry is turned on.
 One-electron integrals computed using PRISM.
 NBasis=    75 RedAO= T EigKep=  1.71D-01  NBF=    75
 NBsUse=    75 1.00D-06 EigRej= -1.00D+00 NBFU=    75
 Initial guess from the checkpoint file:  "/tmp/bnp.472638.sequoia/Gau-16859.chk"
 B after Tr=     0.000000    0.000000    0.000000
         Rot=    0.999999    0.000000    0.000001   -0.001106 Ang=   0.13 deg.
 ExpMin= 1.69D-01 ExpMax= 9.91D+01 ExpMxC= 9.91D+01 IAcc=1 IRadAn=         1 AccDes= 0.00D+00
 Harris functional with IExCor=  402 and IRadAn=       1 diagonalized for initial guess.
 HarFok:  IExCor=  402 AccDes= 0.00D+00 IRadAn=         1 IDoV= 1 UseB2=F ITyADJ=14
 ICtDFT=  3500011 ScaDFX=  1.000000  1.000000  1.000000  1.000000
 FoFCou: FMM=F IPFlag=           0 FMFlag=      100000 FMFlg1=           0
         NFxFlg=           0 DoJE=T BraDBF=F KetDBF=T FulRan=T
         wScrn=  0.000000 ICntrl=     500 IOpCl=  0 I1Cent=   200000004 NGrid=           0
         NMat0=    1 NMatS0=      1 NMatT0=    0 NMatD0=    1 NMtDS0=    0 NMtDT0=    0
 Petite list used in FoFCou.
 Keep R1 ints in memory in canonical form, NReq=4993994.
 Requested convergence on RMS density matrix=1.00D-08 within 128 cycles.
 Requested convergence on MAX density matrix=1.00D-06.
 Requested convergence on             energy=1.00D-06.
 No special actions if energy rises.
 Integral accuracy reduced to 1.0D-05 until final iterations.
 Initial convergence to 1.0D-05 achieved.  Increase integral accuracy.
 SCF Done:  E(RB3LYP) =  -562.513868631     A.U. after   17 cycles
            NFock= 17  Conv=0.71D-08     -V/T= 2.0139
 Calling FoFJK, ICntrl=      2127 FMM=F ISym2X=0 I1Cent= 0 IOpClX= 0 NMat=1 NMatS=1 NMatT=0.
 ***** Axes restored to original set *****
 -------------------------------------------------------------------
 Center     Atomic                   Forces (Hartrees/Bohr)
 Number     Number              X              Y              Z
 -------------------------------------------------------------------
      1        7          -0.016247206    0.001288507   -0.000011675
      2        6           0.011294629    0.000950510    0.000008181
      3        6          -0.005053841    0.005532148    0.000003217
      4        6          -0.002874513   -0.004601458    0.000009935
      5        6           0.006667912    0.010683832    0.000006864
      6        6           0.004374815   -0.037454759   -0.000016017
      7        6          -0.012735872    0.013017030    0.000034982
      8        6           0.010253889   -0.000999894   -0.000038907
      9        6           0.007742689    0.004341152    0.000044876
     10        6          -0.007281272    0.005920924   -0.000069424
     11        6          -0.001264766   -0.012485623    0.000073156
     12        6           0.012925090    0.011911533   -0.000055027
     13        7          -0.005655973    0.015141145   -0.000015879
     14        6           0.005127223   -0.013201706    0.000010670
     15        1          -0.005191102    0.001486277    0.000005410
     16        1          -0.003266470   -0.000367845    0.000002757
     17        1           0.001343656    0.000941301    0.000016726
     18        1           0.001474993    0.000656668   -0.000020032
     19        1          -0.001633878   -0.002759745    0.000010188
 -------------------------------------------------------------------
 Cartesian Forces:  Max     0.037454759 RMS     0.008000836

 GradGradGradGradGradGradGradGradGradGradGradGradGradGradGradGradGradGrad
 Berny optimization.
 Using GEDIIS/GDIIS optimizer.
 FormGI is forming the generalized inverse of G from B-inverse, IUseBI=4.
 GSVD:  received Info=                   1 from GESDD.
 Internal  Forces:  Max     0.021017358 RMS     0.005010889
 Search for a local minimum.
 Step number   2 out of a maximum of  102
 All quantities printed in internal units (Hartrees-Bohrs-Radians)
 Mixed Optimization -- RFO/linear search
 Update second derivatives using D2CorX and points    1    2
 DE= -3.23D-02 DEPred=-3.43D-02 R= 9.41D-01
 TightC=F SS=  1.41D+00  RLast= 3.00D-01 DXNew= 5.0454D-01 8.9992D-01
 Trust test= 9.41D-01 RLast= 3.00D-01 DXMaxT set to 5.05D-01
 ITU=  1  0
 Use linear search instead of GDIIS.
     Eigenvalues ---    0.01608   0.01648   0.01821   0.01838   0.01875
     Eigenvalues ---    0.01943   0.01986   0.02035   0.02044   0.02088
     Eigenvalues ---    0.02153   0.02158   0.02162   0.02178   0.02184
     Eigenvalues ---    0.02208   0.04879   0.04880   0.15836   0.16000
     Eigenvalues ---    0.16000   0.16000   0.16039   0.22012   0.22145
     Eigenvalues ---    0.22861   0.24262   0.24786   0.25000   0.25000
     Eigenvalues ---    0.25090   0.34843   0.34907   0.35045   0.35079
     Eigenvalues ---    0.35164   0.38406   0.39707   0.40166   0.40341
     Eigenvalues ---    0.40638   0.42923   0.43555   0.44902   0.45190
     Eigenvalues ---    0.45934   0.46862   0.47028   0.49817   1.28490
     Eigenvalues ---    1.33958
 RFO step:  Lambda=-3.86110646D-03 EMin= 1.60819787D-02
 Quartic linear search produced a step of  0.36290.
 Iteration  1 RMS(Cart)=  0.04657152 RMS(Int)=  0.00344753
 Iteration  2 RMS(Cart)=  0.00380260 RMS(Int)=  0.00026407
 Iteration  3 RMS(Cart)=  0.00001595 RMS(Int)=  0.00026394
 Iteration  4 RMS(Cart)=  0.00000000 RMS(Int)=  0.00026394
 Variable       Old X    -DE/DX   Delta X   Delta X   Delta X     New X
                                 (Linear)    (Quad)   (Total)
    R1        2.25724   0.01627   0.02443  -0.00803   0.01640   2.27364
    R2        2.75815   0.00521   0.01592   0.00054   0.01647   2.77462
    R3        2.68904   0.00208   0.00978  -0.00580   0.00362   2.69266
    R4        2.72107   0.00450   0.00820   0.00530   0.01300   2.73406
    R5        2.74340   0.00200   0.00846  -0.00223   0.00622   2.74962
    R6        2.70846   0.00487   0.02445  -0.01272   0.01187   2.72034
    R7        2.66912   0.01080   0.01678   0.01339   0.03066   2.69979
    R8        2.07933   0.00235   0.00850  -0.00009   0.00841   2.08774
    R9        2.73410   0.02102   0.03734   0.02260   0.06028   2.79438
   R10        2.76104   0.00393   0.03003  -0.01784   0.01220   2.77324
   R11        2.70713   0.00886   0.02397   0.00095   0.02508   2.73221
   R12        2.71018   0.00314   0.01041  -0.00100   0.00936   2.71953
   R13        2.63446  -0.00397  -0.00317  -0.00871  -0.01206   2.62240
   R14        2.07600   0.00062   0.00594  -0.00398   0.00195   2.07796
   R15        2.67881   0.00719   0.01888   0.00003   0.01879   2.69760
   R16        2.07199   0.00159   0.00578  -0.00011   0.00568   2.07767
   R17        2.64316  -0.00476   0.00463  -0.01875  -0.01407   2.62909
   R18        2.07165   0.00133   0.00611  -0.00147   0.00464   2.07629
   R19        2.07241   0.00204   0.00514   0.00237   0.00751   2.07992
   R20        2.25672   0.01616   0.02413  -0.00782   0.01631   2.27303
    A1        2.08067  -0.00267  -0.00722  -0.01160  -0.01982   2.06085
    A2        2.10024   0.00169   0.00558   0.00555   0.01163   2.11188
    A3        2.10227   0.00098   0.00164   0.00605   0.00819   2.11046
    A4        2.10401  -0.00396  -0.01204  -0.00488  -0.01677   2.08724
    A5        2.07891   0.00237   0.00955   0.00536   0.01507   2.09398
    A6        2.10027   0.00159   0.00249  -0.00047   0.00169   2.10196
    A7        2.16478   0.01095   0.02519   0.03605   0.06185   2.22663
    A8        2.04104  -0.01053  -0.02670  -0.04392  -0.07092   1.97012
    A9        2.07737  -0.00042   0.00150   0.00787   0.00907   2.08644
   A10        2.00019  -0.01966  -0.04119  -0.05625  -0.09601   1.90418
   A11        2.16172   0.01006   0.02155   0.03344   0.05506   2.21678
   A12        2.06976  -0.00191   0.00118  -0.01413  -0.01318   2.05658
   A13        2.05170  -0.00815  -0.02273  -0.01931  -0.04187   2.00983
   A14        2.05874  -0.00026  -0.00082  -0.00117  -0.00276   2.05598
   A15        2.14479  -0.00443  -0.01352  -0.00947  -0.02264   2.12215
   A16        2.07966   0.00469   0.01435   0.01065   0.02540   2.10506
   A17        2.11010  -0.00029  -0.00388   0.00226  -0.00189   2.10821
   A18        2.10441  -0.00321  -0.00304  -0.02328  -0.02619   2.07823
   A19        2.06868   0.00349   0.00693   0.02102   0.02808   2.09675
   A20        2.10418  -0.00066   0.00255  -0.00851  -0.00630   2.09788
   A21        2.08607   0.00075  -0.00379   0.01063   0.00701   2.09308
   A22        2.09294  -0.00009   0.00124  -0.00212  -0.00071   2.09223
   A23        2.09171  -0.00003   0.00082  -0.00248  -0.00178   2.08992
   A24        2.09431  -0.00093  -0.00219  -0.00461  -0.00674   2.08757
   A25        2.09717   0.00096   0.00137   0.00709   0.00852   2.10569
   A26        2.12902   0.00444   0.00889   0.01739   0.02645   2.15547
   A27        2.06991  -0.00478  -0.01161  -0.02181  -0.03350   2.03641
   A28        2.08425   0.00034   0.00272   0.00442   0.00705   2.09130
   A29        3.25624  -0.00207   0.02571  -0.19479  -0.16908   3.08717
   A30        3.15120   0.00013   0.00069   0.00241   0.00310   3.15430
   A31        3.14044   0.00005  -0.00033   0.00434   0.00402   3.14445
   A32        3.14123   0.00002   0.00020   0.00031   0.00051   3.14175
    D1        3.14112   0.00001   0.00009   0.00067   0.00074  -3.14133
    D2        0.00001   0.00000   0.00003   0.00004   0.00006   0.00007
    D3       -0.00010   0.00000   0.00006   0.00013   0.00018   0.00008
    D4       -3.14121  -0.00001   0.00001  -0.00049  -0.00050   3.14148
    D5        0.00103   0.00000   0.00010  -0.00015  -0.00006   0.00097
    D6       -3.14125   0.00001   0.00010   0.00012   0.00022  -3.14102
    D7       -3.14094   0.00001   0.00013   0.00038   0.00050  -3.14044
    D8       -0.00003   0.00001   0.00013   0.00066   0.00078   0.00075
    D9        3.14081  -0.00002  -0.00033  -0.00052  -0.00086   3.13995
   D10       -0.00055  -0.00001  -0.00014  -0.00038  -0.00054  -0.00109
   D11       -0.00126  -0.00001  -0.00028   0.00009  -0.00020  -0.00145
   D12        3.14057   0.00000  -0.00009   0.00023   0.00013   3.14069
   D13        0.00127   0.00001   0.00033  -0.00017   0.00016   0.00143
   D14       -3.14055  -0.00001   0.00015  -0.00031  -0.00019  -3.14075
   D15       -0.00014   0.00000  -0.00017   0.00009  -0.00008  -0.00022
   D16        3.14115   0.00001  -0.00009   0.00032   0.00024   3.14139
   D17       -0.00099   0.00000  -0.00004   0.00008   0.00006  -0.00093
   D18        3.14126   0.00000  -0.00003  -0.00017  -0.00020   3.14106
   D19        3.14090  -0.00001  -0.00012  -0.00015  -0.00026   3.14064
   D20       -0.00003  -0.00001  -0.00011  -0.00041  -0.00052  -0.00055
   D21       -3.14131   0.00000   0.00006   0.00015   0.00022  -3.14109
   D22        0.00044  -0.00001  -0.00007  -0.00024  -0.00030   0.00014
   D23        0.00000   0.00001   0.00014   0.00038   0.00052   0.00052
   D24       -3.14144   0.00000   0.00001  -0.00001   0.00000  -3.14144
   D25       -3.14115   0.00001   0.00008   0.00028   0.00036  -3.14080
   D26        0.00077   0.00000   0.00010  -0.00012  -0.00002   0.00076
   D27       -0.00025   0.00001   0.00007   0.00055   0.00064   0.00038
   D28       -3.14151   0.00001   0.00009   0.00015   0.00026  -3.14125
   D29        0.00058  -0.00001  -0.00006  -0.00065  -0.00071  -0.00013
   D30        3.14150   0.00000   0.00003   0.00003   0.00007   3.14156
   D31       -3.14134  -0.00001  -0.00008  -0.00027  -0.00034   3.14151
   D32       -0.00042   0.00001   0.00001   0.00041   0.00043   0.00001
   D33       -0.00061   0.00001   0.00008   0.00060   0.00068   0.00008
   D34       -3.14142   0.00000   0.00001  -0.00012  -0.00011  -3.14153
   D35       -3.14152   0.00000  -0.00001  -0.00009  -0.00009   3.14157
   D36        0.00085  -0.00002  -0.00008  -0.00081  -0.00088  -0.00003
   D37        0.00032  -0.00001  -0.00013  -0.00048  -0.00061  -0.00029
   D38       -3.14143   0.00000   0.00000  -0.00009  -0.00008  -3.14151
   D39        3.14113   0.00000  -0.00005   0.00024   0.00018   3.14131
   D40       -0.00062   0.00001   0.00007   0.00063   0.00071   0.00009
         Item               Value     Threshold  Converged?
 Maximum Force            0.021017     0.000450     NO 
 RMS     Force            0.005011     0.000300     NO 
 Maximum Displacement     0.344279     0.001800     NO 
 RMS     Displacement     0.047145     0.001200     NO 
 Predicted change in Energy=-3.950511D-03
 GradGradGradGradGradGradGradGradGradGradGradGradGradGradGradGradGradGrad

                          Input orientation:                          
 ---------------------------------------------------------------------
 Center     Atomic      Atomic             Coordinates (Angstroms)
 Number     Number       Type             X           Y           Z
 ---------------------------------------------------------------------
      1          7           0        1.276314    0.582631    0.050042
      2          6           0        2.456712    0.349745    0.054163
      3          6           0        4.780575    1.272745    0.054423
      4          6           0        3.910533    0.144319    0.055009
      5          6           0        4.448240   -1.191026    0.056183
      6          6           0        5.823987   -1.576255    0.055251
      7          6           0        6.666734   -0.361184    0.054799
      8          6           0        6.207307    1.032584    0.054954
      9          6           0        7.154196    2.116307    0.055119
     10          6           0        8.519316    1.866902    0.054679
     11          6           0        9.003941    0.524175    0.054211
     12          6           0        8.102052   -0.535154    0.054103
     13          7           0        3.826546    3.753437    0.051841
     14          6           0        4.250487    2.627787    0.053099
     15          1           0        3.664494   -1.969670    0.057446
     16          1           0        6.782052    3.151025    0.055560
     17          1           0        9.230117    2.705690    0.054782
     18          1           0       10.086752    0.337856    0.053927
     19          1           0        8.474284   -1.570945    0.053819
 ---------------------------------------------------------------------
                    Distance matrix (angstroms):
                    1          2          3          4          5
     1  N    0.000000
     2  C    1.203159   0.000000
     3  C    3.571570   2.500453   0.000000
     4  C    2.670440   1.468263   1.424892   0.000000
     5  C    3.634145   2.517968   2.486084   1.439540   0.000000
     6  C    5.034098   3.879178   3.034058   2.573263   1.428665
     7  C    5.472424   4.269625   2.495459   2.802173   2.368619
     8  C    4.951481   3.812248   1.446804   2.462557   2.835271
     9  C    6.074676   5.018675   2.519063   3.796062   4.273248
    10  C    7.355981   6.249555   3.785659   4.920181   5.091620
    11  C    7.727849   6.549552   4.289194   5.107553   4.867888
    12  C    6.916658   5.714273   3.781628   4.246235   3.712212
    13  N    4.069114   3.669001   2.657821   3.610097   4.983396
    14  C    3.609484   2.899501   1.455037   2.506629   3.823931
    15  H    3.495382   2.615040   3.429125   2.128259   1.104783
    16  H    6.075346   5.153226   2.744786   4.157632   4.929512
    17  H    8.232277   7.171436   4.674587   5.904117   6.168529
    18  H    8.813838   7.630049   5.387906   6.179250   5.842114
    19  H    7.513233   6.316662   4.661552   4.875444   4.043931
                    6          7          8          9         10
     6  C    0.000000
     7  C    1.478722   0.000000
     8  C    2.636850   1.467536   0.000000
     9  C    3.924853   2.524991   1.439116   0.000000
    10  C    4.372657   2.897659   2.457941   1.387716   0.000000
    11  C    3.811025   2.499280   2.842472   2.440582   1.427507
    12  C    2.504690   1.445823   2.459240   2.815790   2.438029
    13  N    5.691695   4.999677   3.615393   3.708566   5.057778
    14  C    4.488861   3.843461   2.524642   2.948414   4.336110
    15  H    2.195038   3.405977   3.934391   5.373382   6.187778
    16  H    4.823388   3.514102   2.195023   1.099606   2.160338
    17  H    5.471451   3.997081   3.454948   2.157967   1.099456
    18  H    4.672792   3.490728   3.941160   3.429689   2.189711
    19  H    2.650302   2.175032   3.452181   3.916435   3.438143
                   11         12         13         14         15
    11  C    0.000000
    12  C    1.391252   0.000000
    13  N    6.101930   6.055738   0.000000
    14  C    5.198125   4.983848   1.202836   0.000000
    15  H    5.893129   4.663665   5.725403   4.634654   0.000000
    16  H    3.440514   3.915395   3.016277   2.585074   5.995056
    17  H    2.193209   3.431560   5.504213   4.980240   7.268780
    18  H    1.098724   2.168220   7.131365   6.269431   6.824228
    19  H    2.161034   1.100646   7.067568   5.955654   4.826290
                   16         17         18         19
    16  H    0.000000
    17  H    2.488242   0.000000
    18  H    4.339927   2.518027   0.000000
    19  H    5.016040   4.342914   2.498715   0.000000
 Stoichiometry    C12H5N2(1-)
 Framework group  C1[X(C12H5N2)]
 Deg. of freedom    51
 Full point group                 C1      NOp   1
 Largest Abelian subgroup         C1      NOp   1
 Largest concise Abelian subgroup C1      NOp   1
                         Standard orientation:                         
 ---------------------------------------------------------------------
 Center     Atomic      Atomic             Coordinates (Angstroms)
 Number     Number       Type             X           Y           Z
 ---------------------------------------------------------------------
      1          7           0       -4.219640   -0.449474   -0.002808
      2          6           0       -3.027321   -0.610573    0.000839
      3          6           0       -0.763511    0.451233    0.000750
      4          6           0       -1.563739   -0.727729    0.001135
      5          6           0       -0.946285   -2.028123    0.001572
      6          6           0        0.450236   -2.329473    0.000040
      7          6           0        1.217980   -1.065674   -0.000166
      8          6           0        0.675131    0.297768    0.000725
      9          6           0        1.554770    1.436755    0.001047
     10          6           0        2.932471    1.270338    0.000067
     11          6           0        3.497386   -0.040634   -0.001123
     12          6           0        2.661191   -1.152551   -0.001392
     13          7           0       -1.865771    2.869710   -0.000479
     14          6           0       -1.374551    1.771749    0.000168
     15          1           0       -1.681522   -2.852727    0.002756
     16          1           0        1.120750    2.447081    0.002044
     17          1           0        3.591261    2.150565    0.000299
     18          1           0        4.589480   -0.161148   -0.001830
     19          1           0        3.095363   -2.163943   -0.002233
 ---------------------------------------------------------------------
 Rotational constants (GHZ):      1.3233858      0.5523589      0.3897034
 Standard basis: STO-3G (5D, 7F)
 There are    75 symmetry adapted cartesian basis functions of A   symmetry.
 There are    75 symmetry adapted basis functions of A   symmetry.
    75 basis functions,   225 primitive gaussians,    75 cartesian basis functions
    46 alpha electrons       46 beta electrons
       nuclear repulsion energy       702.7883594223 Hartrees.
 NAtoms=   19 NActive=   19 NUniq=   19 SFac= 1.00D+00 NAtFMM=   60 NAOKFM=F Big=F
 Integral buffers will be    131072 words long.
 Raffenetti 2 integral format.
 Two-electron integral symmetry is turned on.
 One-electron integrals computed using PRISM.
 NBasis=    75 RedAO= T EigKep=  1.76D-01  NBF=    75
 NBsUse=    75 1.00D-06 EigRej= -1.00D+00 NBFU=    75
 Initial guess from the checkpoint file:  "/tmp/bnp.472638.sequoia/Gau-16859.chk"
 B after Tr=     0.000000    0.000000    0.000000
         Rot=    0.999965   -0.000008    0.000000   -0.008326 Ang=  -0.95 deg.
 ExpMin= 1.69D-01 ExpMax= 9.91D+01 ExpMxC= 9.91D+01 IAcc=1 IRadAn=         1 AccDes= 0.00D+00
 Harris functional with IExCor=  402 and IRadAn=       1 diagonalized for initial guess.
 HarFok:  IExCor=  402 AccDes= 0.00D+00 IRadAn=         1 IDoV= 1 UseB2=F ITyADJ=14
 ICtDFT=  3500011 ScaDFX=  1.000000  1.000000  1.000000  1.000000
 FoFCou: FMM=F IPFlag=           0 FMFlag=      100000 FMFlg1=           0
         NFxFlg=           0 DoJE=T BraDBF=F KetDBF=T FulRan=T
         wScrn=  0.000000 ICntrl=     500 IOpCl=  0 I1Cent=   200000004 NGrid=           0
         NMat0=    1 NMatS0=      1 NMatT0=    0 NMatD0=    1 NMtDS0=    0 NMtDT0=    0
 Petite list used in FoFCou.
 Keep R1 ints in memory in canonical form, NReq=4993994.
 Requested convergence on RMS density matrix=1.00D-08 within 128 cycles.
 Requested convergence on MAX density matrix=1.00D-06.
 Requested convergence on             energy=1.00D-06.
 No special actions if energy rises.
 Integral accuracy reduced to 1.0D-05 until final iterations.
 Initial convergence to 1.0D-05 achieved.  Increase integral accuracy.
 SCF Done:  E(RB3LYP) =  -562.517047528     A.U. after   17 cycles
            NFock= 17  Conv=0.72D-08     -V/T= 2.0141
 Calling FoFJK, ICntrl=      2127 FMM=F ISym2X=0 I1Cent= 0 IOpClX= 0 NMat=1 NMatS=1 NMatT=0.
 ***** Axes restored to original set *****
 -------------------------------------------------------------------
 Center     Atomic                   Forces (Hartrees/Bohr)
 Number     Number              X              Y              Z
 -------------------------------------------------------------------
      1        7           0.004674641   -0.005793619    0.000136010
      2        6          -0.002209488    0.010367510   -0.000237595
      3        6          -0.002896726    0.003088786    0.000014726
      4        6           0.000780498   -0.008313191    0.000117300
      5        6          -0.005748703    0.003747905   -0.000014376
      6        6          -0.000046156   -0.003796463    0.000023498
      7        6           0.002021645    0.010059137   -0.000031194
      8        6          -0.000090308   -0.005596002   -0.000018074
      9        6           0.001486260   -0.000189410   -0.000011688
     10        6           0.000011868    0.002347924    0.000020753
     11        6          -0.000110117   -0.002091670   -0.000017320
     12        6           0.001649469   -0.000897289    0.000030726
     13        7           0.001333333   -0.003418864    0.000010507
     14        6          -0.000537912    0.002346628   -0.000003518
     15        1           0.000977953   -0.001011249   -0.000010133
     16        1          -0.000388026   -0.000731130   -0.000007315
     17        1          -0.000156551   -0.000866020    0.000002600
     18        1          -0.000673454    0.000278620   -0.000005197
     19        1          -0.000078225    0.000468398    0.000000291
 -------------------------------------------------------------------
 Cartesian Forces:  Max     0.010367510 RMS     0.002940233

 GradGradGradGradGradGradGradGradGradGradGradGradGradGradGradGradGradGrad
 Berny optimization.
 Using GEDIIS/GDIIS optimizer.
 FormGI is forming the generalized inverse of G from B-inverse, IUseBI=4.
 Internal  Forces:  Max     0.010855935 RMS     0.001669464
 Search for a local minimum.
 Step number   3 out of a maximum of  102
 All quantities printed in internal units (Hartrees-Bohrs-Radians)
 Mixed Optimization -- RFO/linear search
 Update second derivatives using D2CorX and points    1    2    3
 DE= -3.18D-03 DEPred=-3.95D-03 R= 8.05D-01
 TightC=F SS=  1.41D+00  RLast= 2.55D-01 DXNew= 8.4853D-01 7.6517D-01
 Trust test= 8.05D-01 RLast= 2.55D-01 DXMaxT set to 7.65D-01
 ITU=  1  1  0
 Use linear search instead of GDIIS.
     Eigenvalues ---    0.01608   0.01822   0.01840   0.01875   0.01943
     Eigenvalues ---    0.01989   0.02033   0.02045   0.02090   0.02154
     Eigenvalues ---    0.02160   0.02162   0.02175   0.02184   0.02208
     Eigenvalues ---    0.02228   0.04879   0.04879   0.15196   0.16000
     Eigenvalues ---    0.16000   0.16009   0.16151   0.19605   0.22020
     Eigenvalues ---    0.22673   0.23958   0.24871   0.25000   0.25001
     Eigenvalues ---    0.25199   0.34840   0.34899   0.35036   0.35058
     Eigenvalues ---    0.35158   0.38337   0.39476   0.39720   0.40317
     Eigenvalues ---    0.40541   0.41096   0.43359   0.44160   0.45310
     Eigenvalues ---    0.45955   0.46872   0.46969   0.49697   1.28458
     Eigenvalues ---    1.35898
 RFO step:  Lambda=-4.00743095D-03 EMin= 1.60819979D-02
 Quartic linear search produced a step of -0.19669.
 Iteration  1 RMS(Cart)=  0.03963569 RMS(Int)=  0.02071096
 Iteration  2 RMS(Cart)=  0.04203634 RMS(Int)=  0.00425679
 Iteration  3 RMS(Cart)=  0.00416633 RMS(Int)=  0.00000515
 Iteration  4 RMS(Cart)=  0.00000344 RMS(Int)=  0.00000487
 Iteration  5 RMS(Cart)=  0.00000000 RMS(Int)=  0.00000487
 Variable       Old X    -DE/DX   Delta X   Delta X   Delta X     New X
                                 (Linear)    (Quad)   (Total)
    R1        2.27364  -0.00571  -0.00323   0.00624   0.00301   2.27665
    R2        2.77462  -0.00180  -0.00324   0.00632   0.00308   2.77769
    R3        2.69266   0.00057  -0.00071   0.00290   0.00220   2.69485
    R4        2.73406   0.00129  -0.00256   0.01041   0.00786   2.74192
    R5        2.74962  -0.00129  -0.00122   0.00101  -0.00022   2.74940
    R6        2.72034  -0.00304  -0.00234   0.00142  -0.00091   2.71943
    R7        2.69979   0.00244  -0.00603   0.02379   0.01775   2.71754
    R8        2.08774   0.00002  -0.00165   0.00515   0.00349   2.09123
    R9        2.79438   0.00419  -0.01186   0.04529   0.03343   2.82781
   R10        2.77324  -0.00488  -0.00240  -0.00309  -0.00550   2.76774
   R11        2.73221   0.00075  -0.00493   0.01665   0.01170   2.74391
   R12        2.71953   0.00061  -0.00184   0.00672   0.00489   2.72442
   R13        2.62240  -0.00006   0.00237  -0.00770  -0.00532   2.61708
   R14        2.07796  -0.00056  -0.00038  -0.00031  -0.00069   2.07726
   R15        2.69760   0.00079  -0.00370   0.01312   0.00943   2.70703
   R16        2.07767  -0.00076  -0.00112   0.00163   0.00051   2.07818
   R17        2.62909  -0.00145   0.00277  -0.01173  -0.00896   2.62012
   R18        2.07629  -0.00071  -0.00091   0.00107   0.00016   2.07645
   R19        2.07992  -0.00047  -0.00148   0.00354   0.00206   2.08198
   R20        2.27303  -0.00367  -0.00321   0.00751   0.00431   2.27734
    A1        2.06085  -0.00043   0.00390  -0.01491  -0.01100   2.04985
    A2        2.11188   0.00076  -0.00229   0.01027   0.00798   2.11986
    A3        2.11046  -0.00033  -0.00161   0.00464   0.00302   2.11348
    A4        2.08724  -0.00190   0.00330  -0.01645  -0.01315   2.07409
    A5        2.09398   0.00079  -0.00296   0.01198   0.00902   2.10299
    A6        2.10196   0.00111  -0.00033   0.00447   0.00414   2.10610
    A7        2.22663  -0.00120  -0.01216   0.03490   0.02274   2.24936
    A8        1.97012   0.00206   0.01395  -0.03472  -0.02077   1.94935
    A9        2.08644  -0.00087  -0.00178  -0.00018  -0.00196   2.08448
   A10        1.90418   0.00037   0.01888  -0.05741  -0.03853   1.86564
   A11        2.21678  -0.00089  -0.01083   0.03186   0.02103   2.23781
   A12        2.05658  -0.00098   0.00259  -0.01145  -0.00884   2.04774
   A13        2.00983   0.00187   0.00824  -0.02041  -0.01219   1.99764
   A14        2.05598   0.00104   0.00054   0.00109   0.00164   2.05761
   A15        2.12215   0.00000   0.00445  -0.01310  -0.00864   2.11350
   A16        2.10506  -0.00104  -0.00500   0.01201   0.00701   2.11207
   A17        2.10821   0.00073   0.00037   0.00157   0.00196   2.11016
   A18        2.07823  -0.00100   0.00515  -0.02111  -0.01597   2.06226
   A19        2.09675   0.00027  -0.00552   0.01954   0.01401   2.11077
   A20        2.09788  -0.00063   0.00124  -0.00591  -0.00465   2.09323
   A21        2.09308   0.00078  -0.00138   0.00793   0.00654   2.09963
   A22        2.09223  -0.00014   0.00014  -0.00202  -0.00189   2.09033
   A23        2.08992  -0.00032   0.00035  -0.00163  -0.00128   2.08864
   A24        2.08757   0.00000   0.00133  -0.00479  -0.00347   2.08410
   A25        2.10569   0.00032  -0.00168   0.00643   0.00475   2.11044
   A26        2.15547  -0.00061  -0.00520   0.01437   0.00915   2.16462
   A27        2.03641   0.00039   0.00659  -0.01931  -0.01272   2.02370
   A28        2.09130   0.00022  -0.00139   0.00494   0.00356   2.09487
   A29        3.08717   0.01086   0.03326   0.35476   0.38802   3.47519
   A30        3.15430   0.00011  -0.00061   0.00350   0.00289   3.15718
   A31        3.14445  -0.00025  -0.00079  -0.00802  -0.00881   3.13564
   A32        3.14175  -0.00001  -0.00010   0.00015   0.00004   3.14179
    D1       -3.14133   0.00001  -0.00014   0.00075   0.00060  -3.14073
    D2        0.00007   0.00000  -0.00001   0.00015   0.00015   0.00022
    D3        0.00008   0.00001  -0.00004   0.00034   0.00030   0.00038
    D4        3.14148   0.00000   0.00010  -0.00026  -0.00015   3.14133
    D5        0.00097  -0.00001   0.00001  -0.00045  -0.00043   0.00054
    D6       -3.14102   0.00000  -0.00004  -0.00005  -0.00009  -3.14111
    D7       -3.14044  -0.00001  -0.00010  -0.00004  -0.00013  -3.14057
    D8        0.00075   0.00000  -0.00015   0.00036   0.00021   0.00096
    D9        3.13995   0.00000   0.00017  -0.00028  -0.00011   3.13984
   D10       -0.00109   0.00000   0.00011  -0.00025  -0.00015  -0.00124
   D11       -0.00145   0.00001   0.00004   0.00032   0.00036  -0.00109
   D12        3.14069   0.00001  -0.00002   0.00034   0.00032   3.14101
   D13        0.00143  -0.00001  -0.00003  -0.00047  -0.00050   0.00093
   D14       -3.14075  -0.00001   0.00004  -0.00050  -0.00046  -3.14121
   D15       -0.00022   0.00001   0.00002   0.00016   0.00018  -0.00004
   D16        3.14139   0.00000  -0.00005   0.00010   0.00005   3.14144
   D17       -0.00093   0.00001  -0.00001   0.00029   0.00027  -0.00066
   D18        3.14106   0.00000   0.00004  -0.00010  -0.00006   3.14100
[...]
 ! D16   D(5,6,7,12)           179.9944         -DE/DX =    0.0                 !
 ! D17   D(6,7,8,3)             -0.0153         -DE/DX =    0.0                 !
 ! D18   D(6,7,8,9)            179.9888         -DE/DX =    0.0                 !
 ! D19   D(12,7,8,3)           179.9879         -DE/DX =    0.0                 !
 ! D20   D(12,7,8,9)            -0.008          -DE/DX =    0.0                 !
 ! D21   D(6,7,12,11)         -179.9908         -DE/DX =    0.0                 !
 ! D22   D(6,7,12,19)            0.0054         -DE/DX =    0.0                 !
 ! D23   D(8,7,12,11)            0.0063         -DE/DX =    0.0                 !
 ! D24   D(8,7,12,19)         -179.9975         -DE/DX =    0.0                 !
 ! D25   D(3,8,9,10)          -179.9911         -DE/DX =    0.0                 !
 ! D26   D(3,8,9,16)             0.0097         -DE/DX =    0.0                 !
 ! D27   D(7,8,9,10)             0.0047         -DE/DX =    0.0                 !
 ! D28   D(7,8,9,16)          -179.9946         -DE/DX =    0.0                 !
 ! D29   D(8,9,10,11)            0.0008         -DE/DX =    0.0                 !
 ! D30   D(8,9,10,17)         -179.9989         -DE/DX =    0.0                 !
 ! D31   D(16,9,10,11)        -179.9999         -DE/DX =    0.0                 !
 ! D32   D(16,9,10,17)           0.0004         -DE/DX =    0.0                 !
 ! D33   D(9,10,11,12)          -0.0026         -DE/DX =    0.0                 !
 ! D34   D(9,10,11,18)         179.9984         -DE/DX =    0.0                 !
 ! D35   D(17,10,11,12)        179.9971         -DE/DX =    0.0                 !
 ! D36   D(17,10,11,18)         -0.0018         -DE/DX =    0.0                 !
 ! D37   D(10,11,12,7)          -0.0011         -DE/DX =    0.0                 !
 ! D38   D(10,11,12,19)       -179.9972         -DE/DX =    0.0                 !
 ! D39   D(18,11,12,7)         179.9978         -DE/DX =    0.0                 !
 ! D40   D(18,11,12,19)          0.0017         -DE/DX =    0.0                 !
 --------------------------------------------------------------------------------
 GradGradGradGradGradGradGradGradGradGradGradGradGradGradGradGradGradGrad

                          Input orientation:                          
 ---------------------------------------------------------------------
 Center     Atomic      Atomic             Coordinates (Angstroms)
 Number     Number       Type             X           Y           Z
 ---------------------------------------------------------------------
      1          7           0        1.260237    0.462731    0.053463
      2          6           0        2.457536    0.372027    0.053790
      3          6           0        4.781855    1.287348    0.053940
      4          6           0        3.909074    0.160158    0.054285
      5          6           0        4.433933   -1.174864    0.055078
      6          6           0        5.813037   -1.564912    0.055158
      7          6           0        6.664508   -0.345431    0.054799
      8          6           0        6.209003    1.039113    0.054374
      9          6           0        7.163732    2.118757    0.054302
     10          6           0        8.527012    1.865129    0.054535
     11          6           0        9.005582    0.517841    0.054836
     12          6           0        8.098884   -0.534845    0.054948
     13          7           0        3.841562    3.768459    0.052450
     14          6           0        4.259495    2.642141    0.053137
     15          1           0        3.655377   -1.958091    0.055533
     16          1           0        6.791507    3.152777    0.054069
     17          1           0        9.243847    2.697404    0.054495
     18          1           0       10.086973    0.328492    0.054992
     19          1           0        8.461487   -1.573263    0.055225
 ---------------------------------------------------------------------
                    Distance matrix (angstroms):
                    1          2          3          4          5
     1  N    0.000000
     2  C    1.200730   0.000000
     3  C    3.616875   2.498054   0.000000
     4  C    2.666062   1.466919   1.425589   0.000000
     5  C    3.571283   2.509784   2.486672   1.434490   0.000000
     6  C    4.983906   3.874419   3.032940   2.569229   1.433201
     7  C    5.464364   4.267712   2.492057   2.801435   2.379796
     8  C    4.982218   3.810316   1.448576   2.462161   2.837705
     9  C    6.131368   5.019896   2.522812   3.798541   4.277820
    10  C    7.400860   6.250431   3.789463   4.922629   5.098515
    11  C    7.745541   6.549670   4.293252   5.109045   4.874960
    12  C    6.911024   5.713775   3.784583   4.247062   3.720416
    13  N    4.194172   3.667599   2.653312   3.608933   4.978690
    14  C    3.707476   2.898358   1.452007   2.506599   3.820990
    15  H    3.405448   2.619976   3.435379   2.133388   1.104352
    16  H    6.150715   5.149357   2.741993   4.155020   4.928147
    17  H    8.290464   7.173661   4.679491   5.907405   6.174929
    18  H    8.827757   7.629562   5.391074   6.180192   5.849525
    19  H    7.483533   6.311227   4.660771   4.871264   4.047211
                    6          7          8          9         10
     6  C    0.000000
     7  C    1.487326   0.000000
     8  C    2.633958   1.457548   0.000000
     9  C    3.923493   2.514249   1.441229   0.000000
    10  C    4.373881   2.890587   2.460786   1.386672   0.000000
    11  C    3.811851   2.495168   2.844746   2.440357   1.429760
    12  C    2.507217   1.446828   2.459470   2.813559   2.437861
    13  N    5.686085   4.989300   3.613047   3.709223   5.057282
    14  C    4.484729   3.835320   2.523942   2.951021   4.337678
    15  H    2.193191   3.414022   3.937542   5.378592   6.192725
    16  H    4.818090   3.500512   2.192462   1.098977   2.161022
    17  H    5.471545   3.988964   3.458354   2.159100   1.098424
    18  H    4.674560   3.488185   3.942542   3.427884   2.189688
    19  H    2.648463   2.176397   3.449375   3.913461   3.439016
                   11         12         13         14         15
    11  C    0.000000
    12  C    1.389334   0.000000
    13  N    6.101936   6.053364   0.000000
    14  C    5.199807   4.983388   1.201357   0.000000
    15  H    5.895332   4.665875   5.729577   4.639731   0.000000
    16  H    3.441659   3.912517   3.013509   2.582989   5.996357
    17  H    2.192548   3.429049   5.507435   4.984659   7.273558
    18  H    1.097843   2.167452   7.130115   6.269966   6.825972
    19  H    2.160730   1.099905   7.062415   5.952005   4.821492
                   16         17         18         19
    16  H    0.000000
    17  H    2.494261   0.000000
    18  H    4.340125   2.514480   0.000000
    19  H    5.012413   4.341738   2.501774   0.000000
 Stoichiometry    C12H5N2(1-)
 Framework group  C1[X(C12H5N2)]
 Deg. of freedom    51
 Full point group                 C1      NOp   1
 Largest Abelian subgroup         C1      NOp   1
 Largest concise Abelian subgroup C1      NOp   1
                         Standard orientation:                         
 ---------------------------------------------------------------------
 Center     Atomic      Atomic             Coordinates (Angstroms)
 Number     Number       Type             X           Y           Z
 ---------------------------------------------------------------------
      1          7           0       -4.235276   -0.515640   -0.000088
      2          6           0       -3.035010   -0.549025   -0.000024
      3          6           0       -0.757088    0.476324    0.000056
      4          6           0       -1.575006   -0.691287    0.000113
      5          6           0       -0.986950   -1.999702    0.000269
      6          6           0        0.409218   -2.323400   -0.000068
      7          6           0        1.201441   -1.064623   -0.000097
      8          6           0        0.680292    0.296572    0.000120
      9          6           0        1.582338    1.420606    0.000303
     10          6           0        2.956180    1.232416    0.000176
     11          6           0        3.498587   -0.090463   -0.000156
     12          6           0        2.643230   -1.185275   -0.000296
     13          7           0       -1.814872    2.909666   -0.000258
     14          6           0       -1.343593    1.804607   -0.000104
     15          1           0       -1.727188   -2.819240    0.000556
     16          1           0        1.161124    2.435658    0.000556
     17          1           0        3.632424    2.097996    0.000336
     18          1           0        4.587791   -0.227919   -0.000279
     19          1           0        3.055042   -2.205179   -0.000504
 ---------------------------------------------------------------------
 Rotational constants (GHZ):      1.3177339      0.5516622      0.3888657

 **********************************************************************

            Population analysis using the SCF density.

 **********************************************************************

 Orbital symmetries:
       Occupied  (A) (A) (A) (A) (A) (A) (A) (A) (A) (A) (A) (A)
                 (A) (A) (A) (A) (A) (A) (A) (A) (A) (A) (A) (A)
                 (A) (A) (A) (A) (A) (A) (A) (A) (A) (A) (A) (A)
                 (A) (A) (A) (A) (A) (A) (A) (A) (A) (A)
       Virtual   (A) (A) (A) (A) (A) (A) (A) (A) (A) (A) (A) (A)
                 (A) (A) (A) (A) (A) (A) (A) (A) (A) (A) (A) (A)
                 (A) (A) (A) (A) (A)
 The electronic state is 1-A.
 Alpha  occ. eigenvalues --  -13.97648 -13.96903  -9.88945  -9.88016  -9.87909
 Alpha  occ. eigenvalues --   -9.87707  -9.86986  -9.86796  -9.86325  -9.86138
 Alpha  occ. eigenvalues --   -9.85527  -9.83108  -9.80570  -9.67911  -0.71314
 Alpha  occ. eigenvalues --   -0.70570  -0.66427  -0.62413  -0.56553  -0.54744
 Alpha  occ. eigenvalues --   -0.51655  -0.44412  -0.41377  -0.40519  -0.34158
 Alpha  occ. eigenvalues --   -0.32825  -0.31196  -0.25604  -0.24123  -0.23584
 Alpha  occ. eigenvalues --   -0.21845  -0.19986  -0.19566  -0.16296  -0.15791
 Alpha  occ. eigenvalues --   -0.14436  -0.14425  -0.13364  -0.12529  -0.12105
 Alpha  occ. eigenvalues --   -0.09661  -0.09337  -0.06420  -0.03144   0.01671
 Alpha  occ. eigenvalues --    0.10380
 Alpha virt. eigenvalues --    0.17385   0.22033   0.24051   0.26802   0.27834
 Alpha virt. eigenvalues --    0.30475   0.34779   0.37166   0.43432   0.46104
 Alpha virt. eigenvalues --    0.48214   0.49455   0.52922   0.56112   0.57740
 Alpha virt. eigenvalues --    0.59486   0.60621   0.62802   0.68173   0.69608
 Alpha virt. eigenvalues --    0.71298   0.75136   0.77942   0.81114   0.84727
 Alpha virt. eigenvalues --    0.90804   0.94297   1.05694   1.10213
          Condensed to atoms (all electrons):
               1          2          3          4          5          6
     1  N    6.593948   0.658312   0.000000  -0.010558  -0.000209  -0.000001
     2  C    0.658312   4.946977  -0.030481   0.410605  -0.026008   0.000667
     3  C    0.000000  -0.030481   4.811800   0.483350  -0.030278  -0.005811
     4  C   -0.010558   0.410605   0.483350   4.800986   0.458445  -0.017245
     5  C   -0.000209  -0.026008  -0.030278   0.458445   4.947472   0.440688
     6  C   -0.000001   0.000667  -0.005811  -0.017245   0.440688   5.474756
     7  C    0.000000   0.000041  -0.029199  -0.012441  -0.029232   0.390400
     8  C   -0.000001   0.000821   0.459874  -0.028584  -0.010776  -0.017069
     9  C    0.000000  -0.000005  -0.029168   0.000700   0.000050   0.000572
    10  C    0.000000   0.000000   0.000777  -0.000007   0.000001   0.000014
    11  C    0.000000   0.000000   0.000031   0.000000  -0.000015   0.000747
    12  C    0.000000   0.000000   0.000877   0.000014   0.001354  -0.034127
    13  N   -0.000009  -0.000023  -0.011188  -0.000084  -0.000001   0.000000
    14  C   -0.000022  -0.002759   0.428555  -0.028520   0.000709  -0.000002
    15  H    0.000104  -0.003994   0.001291  -0.035952   0.382250  -0.031391
    16  H    0.000000  -0.000001  -0.003698   0.000020  -0.000002  -0.000013
    17  H    0.000000   0.000000  -0.000017   0.000000   0.000000   0.000000
    18  H    0.000000   0.000000   0.000001   0.000000   0.000000  -0.000017
    19  H    0.000000   0.000000  -0.000016   0.000001   0.000030  -0.001546
               7          8          9         10         11         12
     1  N    0.000000  -0.000001   0.000000   0.000000   0.000000   0.000000
     2  C    0.000041   0.000821  -0.000005   0.000000   0.000000   0.000000
     3  C   -0.029199   0.459874  -0.029168   0.000777   0.000031   0.000877
     4  C   -0.012441  -0.028584   0.000700  -0.000007   0.000000   0.000014
     5  C   -0.029232  -0.010776   0.000050   0.000001  -0.000015   0.001354
     6  C    0.390400  -0.017069   0.000572   0.000014   0.000747  -0.034127
     7  C    4.896677   0.447119  -0.023230  -0.008551  -0.025371   0.461272
     8  C    0.447119   4.817892   0.465811  -0.027767  -0.009143  -0.034307
     9  C   -0.023230   0.465811   4.839001   0.527694  -0.029702  -0.010528
    10  C   -0.008551  -0.027767   0.527694   4.824992   0.473507  -0.029244
    11  C   -0.025371  -0.009143  -0.029702   0.473507   4.841460   0.522267
    12  C    0.461272  -0.034307  -0.010528  -0.029244   0.522267   4.843043
    13  N   -0.000001  -0.000045  -0.000150   0.000001   0.000000   0.000000
    14  C    0.000699  -0.026954  -0.004584   0.000019   0.000000  -0.000006
    15  H    0.002176   0.000005   0.000001   0.000000   0.000000  -0.000015
    16  H    0.001105  -0.024783   0.385116  -0.025937   0.001407   0.000013
    17  H    0.000023   0.001382  -0.026034   0.386790  -0.025207   0.001344
    18  H    0.001281   0.000015   0.001349  -0.025757   0.386937  -0.025383
    19  H   -0.025854   0.001418   0.000030   0.001440  -0.026711   0.384058
              13         14         15         16         17         18
     1  N   -0.000009  -0.000022   0.000104   0.000000   0.000000   0.000000
     2  C   -0.000023  -0.002759  -0.003994  -0.000001   0.000000   0.000000
     3  C   -0.011188   0.428555   0.001291  -0.003698  -0.000017   0.000001
     4  C   -0.000084  -0.028520  -0.035952   0.000020   0.000000   0.000000
     5  C   -0.000001   0.000709   0.382250  -0.000002   0.000000   0.000000
     6  C    0.000000  -0.000002  -0.031391  -0.000013   0.000000  -0.000017
     7  C   -0.000001   0.000699   0.002176   0.001105   0.000023   0.001281
     8  C   -0.000045  -0.026954   0.000005  -0.024783   0.001382   0.000015
     9  C   -0.000150  -0.004584   0.000001   0.385116  -0.026034   0.001349
    10  C    0.000001   0.000019   0.000000  -0.025937   0.386790  -0.025757
    11  C    0.000000   0.000000   0.000000   0.001407  -0.025207   0.386937
    12  C    0.000000  -0.000006  -0.000015   0.000013   0.001344  -0.025383
    13  N    6.604243   0.656657   0.000000  -0.000137   0.000000   0.000000
    14  C    0.656657   4.933194  -0.000019   0.001698   0.000000   0.000000
    15  H    0.000000  -0.000019   0.656416   0.000000   0.000000   0.000000
    16  H   -0.000137   0.001698   0.000000   0.606101  -0.003812  -0.000035
    17  H    0.000000   0.000000   0.000000  -0.003812   0.618086  -0.003261
    18  H    0.000000   0.000000   0.000000  -0.000035  -0.003261   0.621317
    19  H    0.000000   0.000000  -0.000003   0.000002  -0.000035  -0.003782
              19
     1  N    0.000000
     2  C    0.000000
     3  C   -0.000016
     4  C    0.000001
     5  C    0.000030
     6  C   -0.001546
     7  C   -0.025854
     8  C    0.001418
     9  C    0.000030
    10  C    0.001440
    11  C   -0.026711
    12  C    0.384058
    13  N    0.000000
    14  C    0.000000
    15  H   -0.000003
    16  H    0.000002
    17  H   -0.000035
    18  H   -0.003782
    19  H    0.607394
 Mulliken charges:
               1
     1  N   -0.241566
     2  C    0.045848
     3  C   -0.046701
     4  C   -0.020732
     5  C   -0.134477
     6  C   -0.200623
     7  C   -0.046916
     8  C   -0.014907
     9  C   -0.096922
    10  C   -0.097971
    11  C   -0.110207
    12  C   -0.080633
    13  N   -0.249263
    14  C    0.041335
    15  H    0.029131
    16  H    0.062956
    17  H    0.050741
    18  H    0.047334
    19  H    0.063574
 Sum of Mulliken charges =  -1.00000
 Mulliken charges with hydrogens summed into heavy atoms:
               1
     1  N   -0.241566
     2  C    0.045848
     3  C   -0.046701
     4  C   -0.020732
     5  C   -0.105346
     6  C   -0.200623
     7  C   -0.046916
     8  C   -0.014907
     9  C   -0.033966
    10  C   -0.047231
    11  C   -0.062874
    12  C   -0.017059
    13  N   -0.249263
    14  C    0.041335
 Electronic spatial extent (au):  <R**2>=           2655.9473
 Charge=             -1.0000 electrons
 Dipole moment (field-independent basis, Debye):
    X=              4.3830    Y=              1.7423    Z=              0.0007  Tot=              4.7166
 Quadrupole moment (field-independent basis, Debye-Ang):
   XX=           -106.4041   YY=            -99.8510   ZZ=            -74.1563
   XY=              7.2666   XZ=             -0.0009   YZ=              0.0008
 Traceless Quadrupole moment (field-independent basis, Debye-Ang):
   XX=            -12.9336   YY=             -6.3805   ZZ=             19.3142
   XY=              7.2666   XZ=             -0.0009   YZ=              0.0008
 Octapole moment (field-independent basis, Debye-Ang**2):
  XXX=            105.6329  YYY=              8.5492  ZZZ=             -0.0011  XYY=             17.3431
  XXY=             -1.3894  XXZ=              0.0040  XZZ=             -6.8831  YZZ=              2.0463
  YYZ=              0.0077  XYZ=             -0.0020
 Hexadecapole moment (field-independent basis, Debye-Ang**3):
 XXXX=          -2877.6430 YYYY=          -1276.0938 ZZZZ=            -58.3679 XXXY=            -33.1645
 XXXZ=             -0.0191 YYYX=            111.0957 YYYZ=              0.0077 ZZZX=              0.0027
 ZZZY=             -0.0020 XXYY=           -604.1162 XXZZ=           -403.1674 YYZZ=           -181.4894
 XXYZ=              0.0064 YYXZ=             -0.0059 ZZXY=             -3.3700
 N-N= 7.026207683764D+02 E-N=-2.727618787049D+03  KE= 5.547298525288D+02
 1\1\GINC-N046\FOpt\RB3LYP\STO-3G\C12H5N2(1-)\R2532\15-Jun-2021\0\\#N B
 3LYP/STO-3G OPT\\2Naph\\-1,1\N,1.2602370626,0.4627309396,0.0534628192\
 C,2.4575357291,0.372026587,0.0537898019\C,4.7818549289,1.2873478607,0.
 0539400645\C,3.9090738035,0.1601575736,0.054285463\C,4.4339325394,-1.1
 748641723,0.0550783516\C,5.8130367082,-1.5649117623,0.0551579628\C,6.6
 645083155,-0.3454307582,0.0547991547\C,6.2090026767,1.039112658,0.0543
 73851\C,7.1637322195,2.1187569468,0.0543019086\C,8.5270117003,1.865128
 6972,0.0545353114\C,9.0055822255,0.517841052,0.0548355204\C,8.09888396
 48,-0.5348450638,0.0549477375\N,3.8415624205,3.7684589356,0.0524504554
 \C,4.2594951493,2.6421412654,0.0531366904\H,3.6553766963,-1.9580914722
 ,0.0555327894\H,6.791506806,3.1527770853,0.0540693959\H,9.2438472111,2
 .6974044307,0.0544951139\H,10.0869729389,0.3284918032,0.0549923586\H,8
 .4614869037,-1.5732626063,0.0552252498\\Version=ES64L-G09RevD.01\State
 =1-A\HF=-562.5179177\RMSD=3.883e-09\RMSF=1.098e-05\Dipole=1.7552022,0.
 6022745,0.0003707\Quadrupole=-9.0889567,-5.2706551,14.3596118,5.610398
 6,-0.007291,0.0095805\PG=C01 [X(C12H5N2)]\\@


 Some scientists claim that hydrogen, because it is so
 plentiful, is the basic building block of the universe. 
 I dispute that. I say that stupidity is far more
 abundant than hydrogen, and THAT is the basic building 
 block of the universe.
                   --Frank Zappa
 Job cpu time:       0 days  0 hours  5 minutes  8.8 seconds.
 File lengths (MBytes):  RWF=      5 Int=      0 D2E=      0 Chk=      2 Scr=      1
 Normal termination of Gaussian 09 at Tue Jun 15 11:14:05 2021.
