 Entering Gaussian System, Link 0=/usr/local/apps//g09/g09
 Input=14.com
 Output=14.out
 Initial command:
 /usr/local/apps//g09/l1.exe "/tmp/bnp.472670.sequoia/Gau-23752.inp" -scrdir="/tmp/bnp.472670.sequoia/"
 Entering Link 1 = /usr/local/apps//g09/l1.exe PID=     23761.
  
 Copyright (c) 1988,1990,1992,1993,1995,1998,2003,2009,2013,
            Gaussian, Inc.  All Rights Reserved.
  
 This is part of the Gaussian(R) 09 program.  It is based on
 the Gaussian(R) 03 system (copyright 2003, Gaussian, Inc.),
 the Gaussian(R) 98 system (copyright 1998, Gaussian, Inc.),
 the Gaussian(R) 94 system (copyright 1995, Gaussian, Inc.),
 the Gaussian 92(TM) system (copyright 1992, Gaussian, Inc.),
 the Gaussian 90(TM) system (copyright 1990, Gaussian, Inc.),
 the Gaussian 88(TM) system (copyright 1988, Gaussian, Inc.),
 the Gaussian 86(TM) system (copyright 1986, Carnegie Mellon
 University), and the Gaussian 82(TM) system (copyright 1983,
 Carnegie Mellon University). Gaussian is a federally registered
 trademark of Gaussian, Inc.
  
 This software contains proprietary and confidential information,
 including trade secrets, belonging to Gaussian, Inc.
  
 This software is provided under written license and may be
 used, copied, transmitted, or stored only in accord with that
 written license.
  
 The following legend is applicable only to US Government
 contracts under FAR:
  
                    RESTRICTED RIGHTS LEGEND
  
 Use, reproduction and disclosure by the US Government is
 subject to restrictions as set forth in subparagraphs (a)
 and (c) of the Commercial Computer Software - Restricted
 Rights clause in FAR 52.227-19.
  
 Gaussian, Inc.
 340 Quinnipiac St., Bldg. 40, Wallingford CT 06492
  
  
 ---------------------------------------------------------------
 Warning -- This program may not be used in any manner that
 competes with the business of Gaussian, Inc. or will provide
 assistance to any competitor of Gaussian, Inc.  The licensee
 of this program is prohibited from giving any competitor of
 Gaussian, Inc. access to this program.  By using this program,
 the user acknowledges that Gaussian, Inc. is engaged in the
 business of creating and licensing software in the field of
 computational chemistry and represents and warrants to the
 licensee that it is not a competitor of Gaussian, Inc. and that
 it will not use this program in any manner prohibited above.
 ---------------------------------------------------------------
  

 Cite this work as:
 Gaussian 09, Revision D.01,
 M. J. Frisch, G. W. Trucks, H. B. Schlegel, G. E. Scuseria, 
 M. A. Robb, J. R. Cheeseman, G. Scalmani, V. Barone, B. Mennucci, 
 G. A. Petersson, H. Nakatsuji, M. Caricato, X. Li, H. P. Hratchian, 
 A. F. Izmaylov, J. Bloino, G. Zheng, J. L. Sonnenberg, M. Hada, 
 M. Ehara, K. Toyota, R. Fukuda, J. Hasegawa, M. Ishida, T. Nakajima, 
 Y. Honda, O. Kitao, H. Nakai, T. Vreven, J. A. Montgomery, Jr., 
 J. E. Peralta, F. Ogliaro, M. Bearpark, J. J. Heyd, E. Brothers, 
 K. N. Kudin, V. N. Staroverov, T. Keith, R. Kobayashi, J. Normand, 
 K. Raghavachari, A. Rendell, J. C. Burant, S. S. Iyengar, J. Tomasi, 
 M. Cossi, N. Rega, J. M. Millam, M. Klene, J. E. Knox, J. B. Cross, 
 V. Bakken, C. Adamo, J. Jaramillo, R. Gomperts, R. E. Stratmann, 
 O. Yazyev, A. J. Austin, R. Cammi, C. Pomelli, J. W. Ochterski, 
 R. L. Martin, K. Morokuma, V. G. Zakrzewski, G. A. Voth, 
 P. Salvador, J. J. Dannenberg, S. Dapprich, A. D. Daniels, 
 O. Farkas, J. B. Foresman, J. V. Ortiz, J. Cioslowski, 
 and D. J. Fox, Gaussian, Inc., Wallingford CT, 2013.
 
 ******************************************
 Gaussian 09:  ES64L-G09RevD.01 24-Apr-2013
                15-Jun-2021 
 ******************************************
 -------------------
 #N B3LYP/STO-3G OPT
 -------------------
 1/14=-1,18=20,19=15,26=3,38=1/1,3;
 2/9=110,12=2,17=6,18=5,40=1/2;
 3/6=3,11=2,16=1,25=1,30=1,71=1,74=-5/1,2,3;
 4//1;
 5/5=2,38=5/2;
 6/7=2,8=2,9=2,10=2,28=1/1;
 7//1,2,3,16;
 1/14=-1,18=20,19=15,26=3/3(2);
 2/9=110/2;
 99//99;
 2/9=110/2;
 3/6=3,11=2,16=1,25=1,30=1,71=1,74=-5/1,2,3;
 4/5=5,16=3,69=1/1;
 5/5=2,38=5/2;
 7//1,2,3,16;
 1/14=-1,18=20,19=15,26=3/3(-5);
 2/9=110/2;
 6/7=2,8=2,9=2,10=2,19=2,28=1/1;
 99/9=1/99;
 -----
 1Naph
 -----
 Symbolic Z-matrix:
 Charge = -1 Multiplicity = 1
 N                     1.13564  -0.12393   0.07114 
 C                     2.29565  -0.14845   0.07211 
 C                     3.73392  -0.13628   0.07341 
 C                     4.38443   1.10356   0.07387 
 C                     5.77549   1.16499   0.07464 
 C                     6.53337  -0.01282   0.07449 
 C                     5.90119  -1.28229   0.0745 
 C                     4.48183  -1.33348   0.07367 
 C                     3.84944  -2.58853   0.0734 
 C                     4.5702   -3.77882   0.07363 
 C                     5.95642  -3.73829   0.07431 
 C                     6.61413  -2.50686   0.07474 
 N                     9.12229   0.20989   0.07509 
 C                     7.96554   0.11029   0.07509 
 H                     3.80932   2.02885   0.07364 
 H                     6.26643   2.13779   0.07493 
 H                     4.0445   -4.72899   0.07328 
 H                     6.53191  -4.66137   0.07434 
 H                     7.70421  -2.52062   0.07533 
 

 GradGradGradGradGradGradGradGradGradGradGradGradGradGradGradGradGradGrad
 Berny optimization.
 Initialization pass.
                           ----------------------------
                           !    Initial Parameters    !
                           ! (Angstroms and Degrees)  !
 --------------------------                            --------------------------
 ! Name  Definition              Value          Derivative Info.                !
 --------------------------------------------------------------------------------
 ! R1    R(1,2)                  1.1603         estimate D2E/DX2                !
 ! R2    R(2,3)                  1.4383         estimate D2E/DX2                !
 ! R3    R(3,4)                  1.4001         estimate D2E/DX2                !
 ! R4    R(3,8)                  1.4116         estimate D2E/DX2                !
 ! R5    R(4,5)                  1.3924         estimate D2E/DX2                !
 ! R6    R(4,15)                 1.0895         estimate D2E/DX2                !
 ! R7    R(5,6)                  1.4006         estimate D2E/DX2                !
 ! R8    R(5,16)                 1.0897         estimate D2E/DX2                !
 ! R9    R(6,7)                  1.4182         estimate D2E/DX2                !
 ! R10   R(6,14)                 1.4375         estimate D2E/DX2                !
 ! R11   R(7,8)                  1.4203         estimate D2E/DX2                !
 ! R12   R(7,12)                 1.417          estimate D2E/DX2                !
 ! R13   R(8,9)                  1.4054         estimate D2E/DX2                !
 ! R14   R(9,10)                 1.3915         estimate D2E/DX2                !
 ! R15   R(10,11)                1.3868         estimate D2E/DX2                !
 ! R16   R(10,17)                1.0859         estimate D2E/DX2                !
 ! R17   R(11,12)                1.3961         estimate D2E/DX2                !
 ! R18   R(11,18)                1.0878         estimate D2E/DX2                !
 ! R19   R(12,19)                1.0902         estimate D2E/DX2                !
 ! R20   R(13,14)                1.161          estimate D2E/DX2                !
 ! A1    A(2,3,4)              118.1696         estimate D2E/DX2                !
 ! A2    A(2,3,8)              121.5089         estimate D2E/DX2                !
 ! A3    A(4,3,8)              120.3216         estimate D2E/DX2                !
 ! A4    A(3,4,5)              120.2133         estimate D2E/DX2                !
 ! A5    A(3,4,15)             120.4524         estimate D2E/DX2                !
 ! A6    A(5,4,15)             119.3343         estimate D2E/DX2                !
 ! A7    A(4,5,6)              120.2313         estimate D2E/DX2                !
 ! A8    A(4,5,16)             119.3071         estimate D2E/DX2                !
 ! A9    A(6,5,16)             120.4616         estimate D2E/DX2                !
 ! A10   A(5,6,7)              120.7674         estimate D2E/DX2                !
 ! A11   A(5,6,14)             117.8468         estimate D2E/DX2                !
 ! A12   A(7,6,14)             121.3858         estimate D2E/DX2                !
 ! A13   A(6,7,8)              118.5382         estimate D2E/DX2                !
 ! A14   A(6,7,12)             123.3195         estimate D2E/DX2                !
 ! A15   A(8,7,12)             118.1423         estimate D2E/DX2                !
 ! A16   A(3,8,7)              119.9282         estimate D2E/DX2                !
 ! A17   A(3,8,9)              121.2639         estimate D2E/DX2                !
 ! A18   A(7,8,9)              118.808          estimate D2E/DX2                !
 ! A19   A(8,9,10)             122.0612         estimate D2E/DX2                !
 ! A20   A(9,10,11)            119.5216         estimate D2E/DX2                !
 ! A21   A(9,10,17)            119.8493         estimate D2E/DX2                !
 ! A22   A(11,10,17)           120.6291         estimate D2E/DX2                !
 ! A23   A(10,11,12)           119.7815         estimate D2E/DX2                !
 ! A24   A(10,11,18)           120.2666         estimate D2E/DX2                !
 ! A25   A(12,11,18)           119.9519         estimate D2E/DX2                !
 ! A26   A(7,12,11)            121.6854         estimate D2E/DX2                !
 ! A27   A(7,12,19)            120.931          estimate D2E/DX2                !
 ! A28   A(11,12,19)           117.3836         estimate D2E/DX2                !
 ! A29   L(1,2,3,17,-1)        181.6957         estimate D2E/DX2                !
 ! A30   L(6,14,13,18,-1)      180.0081         estimate D2E/DX2                !
 ! A31   L(1,2,3,17,-2)        180.004          estimate D2E/DX2                !
 ! A32   L(6,14,13,18,-2)      179.9743         estimate D2E/DX2                !
 ! D1    D(2,3,4,5)           -179.977          estimate D2E/DX2                !
 ! D2    D(2,3,4,15)             0.0236         estimate D2E/DX2                !
 ! D3    D(8,3,4,5)             -0.0025         estimate D2E/DX2                !
 ! D4    D(8,3,4,15)           179.9981         estimate D2E/DX2                !
 ! D5    D(2,3,8,7)            179.9783         estimate D2E/DX2                !
 ! D6    D(2,3,8,9)             -0.035          estimate D2E/DX2                !
 ! D7    D(4,3,8,7)              0.0046         estimate D2E/DX2                !
 ! D8    D(4,3,8,9)            179.9913         estimate D2E/DX2                !
 ! D9    D(3,4,5,6)              0.0222         estimate D2E/DX2                !
 ! D10   D(3,4,5,16)           179.9964         estimate D2E/DX2                !
 ! D11   D(15,4,5,6)          -179.9784         estimate D2E/DX2                !
 ! D12   D(15,4,5,16)           -0.0042         estimate D2E/DX2                !
 ! D13   D(4,5,6,7)             -0.0444         estimate D2E/DX2                !
 ! D14   D(4,5,6,14)           179.99           estimate D2E/DX2                !
 ! D15   D(16,5,6,7)           179.9818         estimate D2E/DX2                !
 ! D16   D(16,5,6,14)            0.0162         estimate D2E/DX2                !
 ! D17   D(5,6,7,8)              0.0457         estimate D2E/DX2                !
 ! D18   D(5,6,7,12)          -179.9813         estimate D2E/DX2                !
 ! D19   D(14,6,7,8)          -179.9899         estimate D2E/DX2                !
 ! D20   D(14,6,7,12)           -0.0169         estimate D2E/DX2                !
 ! D21   D(6,7,8,3)             -0.0258         estimate D2E/DX2                !
 ! D22   D(6,7,8,9)            179.9872         estimate D2E/DX2                !
 ! D23   D(12,7,8,3)           179.9998         estimate D2E/DX2                !
 ! D24   D(12,7,8,9)             0.0128         estimate D2E/DX2                !
 ! D25   D(6,7,12,11)         -179.9792         estimate D2E/DX2                !
 ! D26   D(6,7,12,19)            0.0244         estimate D2E/DX2                !
 ! D27   D(8,7,12,11)           -0.0061         estimate D2E/DX2                !
 ! D28   D(8,7,12,19)          179.9976         estimate D2E/DX2                !
 ! D29   D(3,8,9,10)           179.999          estimate D2E/DX2                !
 ! D30   D(7,8,9,10)            -0.0141         estimate D2E/DX2                !
 ! D31   D(8,9,10,11)            0.008          estimate D2E/DX2                !
 ! D32   D(8,9,10,17)         -179.9922         estimate D2E/DX2                !
 ! D33   D(9,10,11,12)          -0.0008         estimate D2E/DX2                !
 ! D34   D(9,10,11,18)        -179.9905         estimate D2E/DX2                !
 ! D35   D(17,10,11,12)        179.9994         estimate D2E/DX2                !
 ! D36   D(17,10,11,18)          0.0097         estimate D2E/DX2                !
 ! D37   D(10,11,12,7)           0.0            estimate D2E/DX2                !
 ! D38   D(10,11,12,19)        179.9965         estimate D2E/DX2                !
 ! D39   D(18,11,12,7)         179.9897         estimate D2E/DX2                !
 ! D40   D(18,11,12,19)         -0.0138         estimate D2E/DX2                !
 --------------------------------------------------------------------------------
 Trust Radius=3.00D-01 FncErr=1.00D-07 GrdErr=1.00D-06
 Number of steps in this run=    102 maximum allowed number of steps=    114.
 GradGradGradGradGradGradGradGradGradGradGradGradGradGradGradGradGradGrad

                          Input orientation:                          
 ---------------------------------------------------------------------
 Center     Atomic      Atomic             Coordinates (Angstroms)
 Number     Number       Type             X           Y           Z
 ---------------------------------------------------------------------
      1          7           0        1.135640   -0.123930    0.071140
      2          6           0        2.295650   -0.148450    0.072110
      3          6           0        3.733920   -0.136280    0.073410
      4          6           0        4.384430    1.103560    0.073870
      5          6           0        5.775490    1.164990    0.074640
      6          6           0        6.533370   -0.012820    0.074490
      7          6           0        5.901190   -1.282290    0.074500
      8          6           0        4.481830   -1.333480    0.073670
      9          6           0        3.849440   -2.588530    0.073400
     10          6           0        4.570200   -3.778820    0.073630
     11          6           0        5.956420   -3.738290    0.074310
     12          6           0        6.614130   -2.506860    0.074740
     13          7           0        9.122290    0.209890    0.075090
     14          6           0        7.965540    0.110290    0.075090
     15          1           0        3.809320    2.028850    0.073640
     16          1           0        6.266430    2.137790    0.074930
     17          1           0        4.044500   -4.728990    0.073280
     18          1           0        6.531910   -4.661370    0.074340
     19          1           0        7.704210   -2.520620    0.075330
 ---------------------------------------------------------------------
                    Distance matrix (angstroms):
                    1          2          3          4          5
     1  N    0.000000
     2  C    1.160270   0.000000
     3  C    2.598310   1.438322   0.000000
     4  C    3.472949   2.435269   1.400131   0.000000
     5  C    4.815551   3.719465   2.421015   1.392416   0.000000
     6  C    5.398874   4.239891   2.802171   2.421621   1.400578
     7  C    4.904312   3.779619   2.451612   2.827161   2.450506
     8  C    3.558090   2.486701   1.411615   2.438986   2.813523
     9  C    3.665920   2.892794   2.454969   3.730649   4.218837
    10  C    5.015419   4.284060   3.737307   4.885913   5.088613
    11  C    6.025241   5.127201   4.232491   5.090645   4.906617
    12  C    5.974297   4.920505   3.730316   4.243430   3.766404
    13  N    7.993624   6.836039   5.399478   4.821407   3.480415
    14  C    6.833916   5.675791   4.238798   3.716307   2.430784
    15  H    3.432642   2.651761   2.166443   1.089455   2.147575
    16  H    5.607174   4.581920   3.403675   2.147454   1.089661
    17  H    5.446838   4.903042   4.603199   5.842447   6.142909
    18  H    7.050397   6.189697   5.320262   6.151917   5.875257
    19  H    6.992156   5.905906   4.631229   4.914837   4.159770
                    6          7          8          9         10
     6  C    0.000000
     7  C    1.418170   0.000000
     8  C    2.439869   1.420283   0.000000
     9  C    3.719914   2.432271   1.405371   0.000000
    10  C    4.246975   2.829169   2.446936   1.391505   0.000000
    11  C    3.769880   2.456621   2.820909   2.400274   1.386813
    12  C    2.495347   1.416988   2.433829   2.765896   2.407391
    13  N    2.598482   3.549942   4.890385   5.969431   6.052382
    14  C    1.437452   2.490145   3.771036   4.921982   5.162704
    15  H    3.404242   3.916576   3.428926   4.617554   5.857301
    16  H    2.167113   3.439527   3.903142   5.308478   6.154955
    17  H    5.332611   3.914976   3.423557   2.149330   1.085902
    18  H    4.648550   3.437439   3.908667   3.390031   2.151093
    19  H    2.767657   2.187314   3.434099   3.855369   3.377142
                   11         12         13         14         15
    11  C    0.000000
    12  C    1.396067   0.000000
    13  N    5.060717   3.697512   0.000000
    14  C    4.341444   2.945468   1.161030   0.000000
    15  H    6.153856   5.332882   5.615716   4.577667   0.000000
    16  H    5.884252   4.657646   3.445683   2.645322   2.459524
    17  H    2.153352   3.397184   7.083537   6.228418   6.761931
    18  H    1.087780   2.156078   5.517177   4.982372   7.222987
    19  H    2.130139   1.090167   3.076790   2.643857   5.988977
                   16         17         18         19
    16  H    0.000000
    17  H    7.217316   0.000000
    18  H    6.804341   2.488329   0.000000
    19  H    4.875243   4.274386   2.440717   0.000000
 Stoichiometry    C12H5N2(1-)
 Framework group  C1[X(C12H5N2)]
 Deg. of freedom    51
 Full point group                 C1      NOp   1
 Largest Abelian subgroup         C1      NOp   1
 Largest concise Abelian subgroup C1      NOp   1
                         Standard orientation:                         
 ---------------------------------------------------------------------
 Center     Atomic      Atomic             Coordinates (Angstroms)
 Number     Number       Type             X           Y           Z
 ---------------------------------------------------------------------
      1          7           0        4.040646   -0.898466   -0.000696
      2          6           0        2.881312   -0.851871   -0.000305
      3          6           0        1.443071   -0.836663    0.000278
      4          6           0        0.769079   -2.063897    0.000430
      5          6           0       -0.622898   -2.098838    0.000507
      6          6           0       -1.358222   -0.906816   -0.000037
      7          6           0       -0.701994    0.350391    0.000271
      8          6           0        0.718084    0.374556    0.000148
      9          6           0        1.374248    1.617342    0.000176
     10          6           0        0.676274    2.821135    0.000030
     11          6           0       -0.710466    2.806997    0.000019
     12          6           0       -1.391496    1.588309    0.000138
     13          7           0       -3.950912   -1.080209   -0.000725
     14          6           0       -2.792476   -1.002644   -0.000149
     15          1           0        1.326473   -2.999966    0.000500
     16          1           0       -1.132265   -3.062117    0.000566
     17          1           0        1.219964    3.761126   -0.000072
     18          1           0       -1.268282    3.740864   -0.000251
     19          1           0       -2.481117    1.622815    0.000184
 ---------------------------------------------------------------------
 Rotational constants (GHZ):      1.0640766      0.6468724      0.4023041
 Standard basis: STO-3G (5D, 7F)
 There are    75 symmetry adapted cartesian basis functions of A   symmetry.
 There are    75 symmetry adapted basis functions of A   symmetry.
    75 basis functions,   225 primitive gaussians,    75 cartesian basis functions
    46 alpha electrons       46 beta electrons
       nuclear repulsion energy       714.9928525243 Hartrees.
 NAtoms=   19 NActive=   19 NUniq=   19 SFac= 1.00D+00 NAtFMM=   60 NAOKFM=F Big=F
 Integral buffers will be    131072 words long.
 Raffenetti 2 integral format.
 Two-electron integral symmetry is turned on.
 One-electron integrals computed using PRISM.
 NBasis=    75 RedAO= T EigKep=  1.55D-01  NBF=    75
 NBsUse=    75 1.00D-06 EigRej= -1.00D+00 NBFU=    75
 ExpMin= 1.69D-01 ExpMax= 9.91D+01 ExpMxC= 9.91D+01 IAcc=1 IRadAn=         1 AccDes= 0.00D+00
 Harris functional with IExCor=  402 and IRadAn=       1 diagonalized for initial guess.
 HarFok:  IExCor=  402 AccDes= 0.00D+00 IRadAn=         1 IDoV= 1 UseB2=F ITyADJ=14
 ICtDFT=  3500011 ScaDFX=  1.000000  1.000000  1.000000  1.000000
 FoFCou: FMM=F IPFlag=           0 FMFlag=      100000 FMFlg1=           0
         NFxFlg=           0 DoJE=T BraDBF=F KetDBF=T FulRan=T
         wScrn=  0.000000 ICntrl=     500 IOpCl=  0 I1Cent=   200000004 NGrid=           0
         NMat0=    1 NMatS0=      1 NMatT0=    0 NMatD0=    1 NMtDS0=    0 NMtDT0=    0
 Petite list used in FoFCou.
 Keep R1 ints in memory in canonical form, NReq=4993994.
 Requested convergence on RMS density matrix=1.00D-08 within 128 cycles.
 Requested convergence on MAX density matrix=1.00D-06.
 Requested convergence on             energy=1.00D-06.
 No special actions if energy rises.
 Integral accuracy reduced to 1.0D-05 until final iterations.
 EnCoef did    16 forward-backward iterations
 EnCoef did     2 forward-backward iterations
 Rare condition: small coef for last iteration:  0.000D+00
 Problem detected with inexpensive integrals.
 Switching to full accuracy and repeating last cycle.
 SCF Done:  E(RB3LYP) =  -562.476682673     A.U. after   28 cycles
            NFock= 28  Conv=0.32D-08     -V/T= 2.0130

 **********************************************************************

            Population analysis using the SCF density.

 **********************************************************************

 Orbital symmetries:
       Occupied  (A) (A) (A) (A) (A) (A) (A) (A) (A) (A) (A) (A)
                 (A) (A) (A) (A) (A) (A) (A) (A) (A) (A) (A) (A)
                 (A) (A) (A) (A) (A) (A) (A) (A) (A) (A) (A) (A)
                 (A) (A) (A) (A) (A) (A) (A) (A) (A) (A)
       Virtual   (A) (A) (A) (A) (A) (A) (A) (A) (A) (A) (A) (A)
                 (A) (A) (A) (A) (A) (A) (A) (A) (A) (A) (A) (A)
                 (A) (A) (A) (A) (A)
 The electronic state is 1-A.
 Alpha  occ. eigenvalues --  -13.97698 -13.96903  -9.88955  -9.88777  -9.88545
 Alpha  occ. eigenvalues --   -9.87923  -9.87454  -9.86849  -9.86373  -9.83999
 Alpha  occ. eigenvalues --   -9.83758  -9.82540  -9.80002  -9.68051  -0.73278
 Alpha  occ. eigenvalues --   -0.72220  -0.67913  -0.61930  -0.59288  -0.54846
 Alpha  occ. eigenvalues --   -0.50124  -0.47115  -0.41671  -0.40125  -0.34846
 Alpha  occ. eigenvalues --   -0.32197  -0.30554  -0.28548  -0.25227  -0.21889
 Alpha  occ. eigenvalues --   -0.21377  -0.21143  -0.19861  -0.17600  -0.17152
 Alpha  occ. eigenvalues --   -0.14413  -0.14183  -0.13868  -0.13106  -0.12763
 Alpha  occ. eigenvalues --   -0.11422  -0.11206  -0.05889  -0.04047   0.02147
 Alpha  occ. eigenvalues --    0.12879
 Alpha virt. eigenvalues --    0.16023   0.23659   0.28032   0.28477   0.28502
 Alpha virt. eigenvalues --    0.29713   0.37506   0.38724   0.46020   0.48275
 Alpha virt. eigenvalues --    0.48801   0.52901   0.55054   0.58179   0.60230
 Alpha virt. eigenvalues --    0.63188   0.64361   0.65616   0.71698   0.72929
 Alpha virt. eigenvalues --    0.73769   0.77916   0.83061   0.86455   0.87768
 Alpha virt. eigenvalues --    0.98440   0.99591   1.14891   1.16725
          Condensed to atoms (all electrons):
               1          2          3          4          5          6
     1  N    6.584503   0.684840  -0.010950  -0.000239  -0.000001   0.000000
     2  C    0.684840   4.879897   0.428032  -0.034015   0.001053   0.000018
     3  C   -0.010950   0.428032   4.777554   0.495373  -0.030056  -0.010208
     4  C   -0.000239  -0.034015   0.495373   4.835659   0.503365  -0.030873
     5  C   -0.000001   0.001053  -0.030056   0.503365   4.825552   0.499134
     6  C    0.000000   0.000018  -0.010208  -0.030873   0.499134   4.785964
     7  C   -0.000002   0.001014  -0.033845  -0.008949  -0.028911   0.459345
     8  C   -0.000027  -0.028623   0.465569  -0.029427  -0.010082  -0.027774
     9  C   -0.000351   0.000318  -0.038612   0.000936   0.000040   0.001077
    10  C    0.000001   0.000006   0.001199  -0.000013   0.000001   0.000042
    11  C    0.000000   0.000001  -0.000008   0.000001  -0.000008   0.000851
    12  C    0.000000  -0.000006   0.000919   0.000042   0.000784  -0.030305
    13  N    0.000000   0.000000   0.000000  -0.000001  -0.000175  -0.011514
    14  C    0.000000   0.000000   0.000012   0.001069  -0.034493   0.429379
    15  H    0.000060  -0.003892  -0.025080   0.390223  -0.026469   0.001482
    16  H    0.000000  -0.000021   0.001473  -0.026271   0.390602  -0.025044
    17  H    0.000000  -0.000004  -0.000006   0.000000   0.000000   0.000001
    18  H    0.000000   0.000000   0.000001   0.000000   0.000000  -0.000014
    19  H    0.000000   0.000000  -0.000021  -0.000001   0.000016  -0.003701
               7          8          9         10         11         12
     1  N   -0.000002  -0.000027  -0.000351   0.000001   0.000000   0.000000
     2  C    0.001014  -0.028623   0.000318   0.000006   0.000001  -0.000006
     3  C   -0.033845   0.465569  -0.038612   0.001199  -0.000008   0.000919
     4  C   -0.008949  -0.029427   0.000936  -0.000013   0.000001   0.000042
     5  C   -0.028911  -0.010082   0.000040   0.000001  -0.000008   0.000784
     6  C    0.459345  -0.027774   0.001077   0.000042   0.000851  -0.030305
     7  C    4.799939   0.452063  -0.029757  -0.011193  -0.026150   0.490500
     8  C    0.452063   4.823728   0.459697  -0.028137  -0.011291  -0.032069
     9  C   -0.029757   0.459697   5.362857   0.496758  -0.029309  -0.014052
    10  C   -0.011193  -0.028137   0.496758   4.872837   0.483792  -0.033671
    11  C   -0.026150  -0.011291  -0.029309   0.483792   4.841802   0.516030
    12  C    0.490500  -0.032069  -0.014052  -0.033671   0.516030   4.864098
    13  N   -0.000047  -0.000002   0.000000   0.000000   0.000000  -0.000115
    14  C   -0.028415   0.000924  -0.000009   0.000000   0.000019  -0.004448
    15  H    0.000020   0.001346  -0.000022   0.000000   0.000000   0.000001
    16  H    0.001313   0.000037   0.000001   0.000000   0.000000  -0.000018
    17  H   -0.000025   0.001855  -0.033777   0.387691  -0.032353   0.001476
    18  H    0.001376   0.000068   0.001702  -0.026178   0.383345  -0.027070
    19  H   -0.025125   0.001313   0.000062   0.001537  -0.028293   0.389203
              13         14         15         16         17         18
     1  N    0.000000   0.000000   0.000060   0.000000   0.000000   0.000000
     2  C    0.000000   0.000000  -0.003892  -0.000021  -0.000004   0.000000
     3  C    0.000000   0.000012  -0.025080   0.001473  -0.000006   0.000001
     4  C   -0.000001   0.001069   0.390223  -0.026271   0.000000   0.000000
     5  C   -0.000175  -0.034493  -0.026469   0.390602   0.000000   0.000000
     6  C   -0.011514   0.429379   0.001482  -0.025044   0.000001  -0.000014
     7  C   -0.000047  -0.028415   0.000020   0.001313  -0.000025   0.001376
     8  C   -0.000002   0.000924   0.001346   0.000037   0.001855   0.000068
     9  C    0.000000  -0.000009  -0.000022   0.000001  -0.033777   0.001702
    10  C    0.000000   0.000000   0.000000   0.000000   0.387691  -0.026178
    11  C    0.000000   0.000019   0.000000   0.000000  -0.032353   0.383345
    12  C   -0.000115  -0.004448   0.000001  -0.000018   0.001476  -0.027070
    13  N    6.592892   0.682864   0.000000   0.000051   0.000000   0.000000
    14  C    0.682864   4.902439  -0.000022  -0.004018   0.000000  -0.000001
    15  H    0.000000  -0.000022   0.607065  -0.004130   0.000000   0.000000
    16  H    0.000051  -0.004018  -0.004130   0.604585   0.000000   0.000000
    17  H    0.000000   0.000000   0.000000   0.000000   0.649353  -0.003157
    18  H    0.000000  -0.000001   0.000000   0.000000  -0.003157   0.634160
    19  H   -0.000169   0.001251   0.000000  -0.000001  -0.000043  -0.004270
              19
     1  N    0.000000
     2  C    0.000000
     3  C   -0.000021
     4  C   -0.000001
     5  C    0.000016
     6  C   -0.003701
     7  C   -0.025125
     8  C    0.001313
     9  C    0.000062
    10  C    0.001537
    11  C   -0.028293
    12  C    0.389203
    13  N   -0.000169
    14  C    0.001251
    15  H    0.000000
    16  H   -0.000001
    17  H   -0.000043
    18  H   -0.004270
    19  H    0.620630
 Mulliken charges:
               1
     1  N   -0.257832
     2  C    0.071384
     3  C   -0.021347
     4  C   -0.096877
     5  C   -0.090352
     6  C   -0.037859
     7  C   -0.013151
     8  C   -0.039166
     9  C   -0.177557
    10  C   -0.144673
    11  C   -0.098429
    12  C   -0.121299
    13  N   -0.263785
    14  C    0.053448
    15  H    0.059418
    16  H    0.061443
    17  H    0.028989
    18  H    0.040036
    19  H    0.047609
 Sum of Mulliken charges =  -1.00000
 Mulliken charges with hydrogens summed into heavy atoms:
               1
     1  N   -0.257832
     2  C    0.071384
     3  C   -0.021347
     4  C   -0.037459
     5  C   -0.028909
     6  C   -0.037859
     7  C   -0.013151
     8  C   -0.039166
     9  C   -0.177557
    10  C   -0.115684
    11  C   -0.058392
    12  C   -0.073690
    13  N   -0.263785
    14  C    0.053448
 Electronic spatial extent (au):  <R**2>=           2561.0668
 Charge=             -1.0000 electrons
 Dipole moment (field-independent basis, Debye):
    X=             -2.1580    Y=             -1.8666    Z=             -0.2535  Tot=              2.8645
 Quadrupole moment (field-independent basis, Debye-Ang):
   XX=           -124.4447   YY=            -82.8675   ZZ=            -74.1317
   XY=             -5.5244   XZ=             -0.4538   YZ=             -0.2186
 Traceless Quadrupole moment (field-independent basis, Debye-Ang):
   XX=            -30.6300   YY=             10.9471   ZZ=             19.6829
   XY=             -5.5244   XZ=             -0.4538   YZ=             -0.2186
 Octapole moment (field-independent basis, Debye-Ang**2):
  XXX=            -16.2719  YYY=            -25.3680  ZZZ=             -0.1567  XYY=             -6.1890
  XXY=             34.9321  XXZ=             -0.9201  XZZ=              0.5352  YZZ=             -2.3435
  YYZ=             -0.3258  XYZ=             -0.5595
 Hexadecapole moment (field-independent basis, Debye-Ang**3):
 XXXX=          -2834.7638 YYYY=          -1321.5690 ZZZZ=            -58.3332 XXXY=            -40.6184
 XXXZ=             -1.6097 YYYX=            -19.2004 YYYZ=             -0.5879 ZZZX=             -0.2634
 ZZZY=             -0.1477 XXYY=           -584.4276 XXZZ=           -319.2346 YYZZ=           -238.0878
 XXYZ=             -1.5425 YYXZ=             -1.5007 ZZXY=              0.8302
 N-N= 7.149928525243D+02 E-N=-2.752427331254D+03  KE= 5.552561797677D+02
 Calling FoFJK, ICntrl=      2127 FMM=F ISym2X=0 I1Cent= 0 IOpClX= 0 NMat=1 NMatS=1 NMatT=0.
 ***** Axes restored to original set *****
 -------------------------------------------------------------------
 Center     Atomic                   Forces (Hartrees/Bohr)
 Number     Number              X              Y              Z
 -------------------------------------------------------------------
      1        7          -0.108327972    0.004068581    0.001675851
      2        6           0.091060679   -0.009928930   -0.004027003
      3        6          -0.008005138    0.027410726    0.002211030
      4        6          -0.004731232    0.012908343   -0.002014691
      5        6           0.000431730    0.007987985    0.001870929
      6        6           0.017788639    0.020604862    0.000182012
      7        6           0.018923029   -0.010451285    0.011139823
      8        6           0.007480100   -0.036718812   -0.004345525
      9        6          -0.065596654   -0.019983275    0.009693786
     10        6          -0.015120126    0.022888164   -0.012126746
     11        6           0.022158531    0.001295046   -0.006478913
     12        6           0.013918033   -0.014423434    0.001200424
     13        7           0.105912820    0.009545218    0.002217344
     14        6          -0.088968463   -0.009856753   -0.007349342
     15        1          -0.004297307    0.004694738   -0.000946377
     16        1           0.004611803    0.004502143    0.000045478
     17        1          -0.002815098   -0.013774789    0.002696294
     18        1           0.010205660   -0.007275790    0.003538938
     19        1           0.005370965    0.006507262    0.000816688
 -------------------------------------------------------------------
 Cartesian Forces:  Max     0.108327972 RMS     0.029777142

 GradGradGradGradGradGradGradGradGradGradGradGradGradGradGradGradGradGrad
 Berny optimization.
 FormGI is forming the generalized inverse of G from B-inverse, IUseBI=4.
 Internal  Forces:  Max     0.108388047 RMS     0.020182652
 Search for a local minimum.
 Step number   1 out of a maximum of  102
 All quantities printed in internal units (Hartrees-Bohrs-Radians)
 Mixed Optimization -- RFO/linear search
 Second derivative matrix not updated -- first step.
 ITU=  0
     Eigenvalues ---    0.01582   0.01582   0.01867   0.01874   0.01903
     Eigenvalues ---    0.01963   0.01991   0.01999   0.02008   0.02059
     Eigenvalues ---    0.02118   0.02121   0.02148   0.02194   0.02201
     Eigenvalues ---    0.02244   0.04853   0.04853   0.16000   0.16000
     Eigenvalues ---    0.16000   0.16000   0.16000   0.22085   0.22480
     Eigenvalues ---    0.23378   0.24508   0.24905   0.25000   0.25000
     Eigenvalues ---    0.25000   0.34793   0.34852   0.34876   0.35070
     Eigenvalues ---    0.35291   0.37931   0.39816   0.39937   0.40456
     Eigenvalues ---    0.41136   0.42657   0.43508   0.44718   0.44926
     Eigenvalues ---    0.45670   0.45977   0.46314   0.47321   1.27122
     Eigenvalues ---    1.27617
 RFO step:  Lambda=-5.36005497D-02 EMin= 1.58182814D-02
 Linear search not attempted -- first point.
 Maximum step size (   0.300) exceeded in Quadratic search.
    -- Step size scaled by   0.923
 Iteration  1 RMS(Cart)=  0.05008331 RMS(Int)=  0.00127695
 Iteration  2 RMS(Cart)=  0.00201261 RMS(Int)=  0.00052168
 Iteration  3 RMS(Cart)=  0.00000150 RMS(Int)=  0.00052168
 Iteration  4 RMS(Cart)=  0.00000000 RMS(Int)=  0.00052168
 Variable       Old X    -DE/DX   Delta X   Delta X   Delta X     New X
                                 (Linear)    (Quad)   (Total)
    R1        2.19259   0.10839   0.00000   0.07524   0.07524   2.26783
    R2        2.71803   0.01732   0.00000   0.03538   0.03538   2.75342
    R3        2.64586   0.02089   0.00000   0.03714   0.03713   2.68299
    R4        2.66757   0.04112   0.00000   0.07867   0.07881   2.74637
    R5        2.63128   0.01985   0.00000   0.03308   0.03293   2.66421
    R6        2.05877   0.00626   0.00000   0.01435   0.01435   2.07312
    R7        2.64671   0.01826   0.00000   0.03177   0.03163   2.67834
    R8        2.05916   0.00610   0.00000   0.01400   0.01400   2.07316
    R9        2.67995   0.03795   0.00000   0.07353   0.07354   2.75349
   R10        2.71639   0.01685   0.00000   0.03434   0.03434   2.75073
   R11        2.68395   0.04550   0.00000   0.09137   0.09138   2.77532
   R12        2.67772   0.00734   0.00000   0.01375   0.01341   2.69113
   R13        2.65577   0.03476   0.00000   0.06549   0.06567   2.72144
   R14        2.62956   0.01417   0.00000   0.02519   0.02553   2.65509
   R15        2.62070   0.04531   0.00000   0.07740   0.07755   2.69824
   R16        2.05206   0.01342   0.00000   0.03046   0.03046   2.08252
   R17        2.63818   0.00363   0.00000   0.00506   0.00487   2.64306
   R18        2.05561   0.01157   0.00000   0.02642   0.02642   2.08203
   R19        2.06012   0.00529   0.00000   0.01216   0.01216   2.07227
   R20        2.19403   0.10634   0.00000   0.07409   0.07409   2.26812
    A1        2.06245   0.00295   0.00000   0.00831   0.00820   2.07065
    A2        2.12073  -0.00867   0.00000  -0.02703  -0.02714   2.09359
    A3        2.10001   0.00572   0.00000   0.01871   0.01879   2.11880
    A4        2.09812   0.00327   0.00000   0.00613   0.00595   2.10407
    A5        2.10229  -0.00284   0.00000  -0.00827  -0.00819   2.09410
    A6        2.08278  -0.00043   0.00000   0.00215   0.00222   2.08500
    A7        2.09843   0.00490   0.00000   0.01038   0.01004   2.10848
    A8        2.08230  -0.00030   0.00000   0.00410   0.00421   2.08651
    A9        2.10245  -0.00460   0.00000  -0.01449  -0.01438   2.08807
   A10        2.10779  -0.00271   0.00000  -0.00916  -0.00940   2.09839
   A11        2.05681   0.00329   0.00000   0.01046   0.01042   2.06723
   A12        2.11858  -0.00058   0.00000  -0.00128  -0.00132   2.11727
   A13        2.06888   0.00390   0.00000   0.01601   0.01629   2.08518
   A14        2.15233  -0.00297   0.00000  -0.01229  -0.01232   2.14001
   A15        2.06197  -0.00094   0.00000  -0.00373  -0.00458   2.05739
   A16        2.09314  -0.01509   0.00000  -0.04208  -0.04178   2.05136
   A17        2.11645  -0.00639   0.00000  -0.02468  -0.02483   2.09163
   A18        2.07359   0.02148   0.00000   0.06676   0.06657   2.14016
   A19        2.13037  -0.03846   0.00000  -0.11292  -0.11200   2.01837
   A20        2.08604   0.01886   0.00000   0.06159   0.06159   2.14764
   A21        2.09176  -0.00512   0.00000  -0.01215  -0.01287   2.07890
   A22        2.10538  -0.01375   0.00000  -0.04944  -0.05003   2.05535
   A23        2.09058   0.00710   0.00000   0.01878   0.01853   2.10911
   A24        2.09905   0.00139   0.00000   0.01198   0.01188   2.11093
   A25        2.09356  -0.00850   0.00000  -0.03076  -0.03079   2.06277
   A26        2.12381  -0.00805   0.00000  -0.03048  -0.03118   2.09263
   A27        2.11064  -0.00274   0.00000  -0.01402  -0.01372   2.09692
   A28        2.04873   0.01080   0.00000   0.04450   0.04481   2.09354
   A29        3.17119   0.00390   0.00000   0.05189   0.05189   3.22308
   A30        3.14173   0.00093   0.00000   0.00839   0.00839   3.15013
   A31        3.14166   0.00359   0.00000   0.04771   0.04771   3.18938
   A32        3.14114   0.00452   0.00000   0.04087   0.04087   3.18201
    D1       -3.14119   0.00095   0.00000   0.01216   0.01202  -3.12917
    D2        0.00041   0.00036   0.00000   0.00458   0.00456   0.00497
    D3       -0.00004  -0.00049   0.00000  -0.00598  -0.00617  -0.00622
    D4        3.14156  -0.00109   0.00000  -0.01356  -0.01364   3.12792
    D5        3.14121  -0.00079   0.00000  -0.00987  -0.00958   3.13164
    D6       -0.00061  -0.00005   0.00000  -0.00035  -0.00081  -0.00142
    D7        0.00008   0.00070   0.00000   0.00888   0.00884   0.00892
    D8        3.14144   0.00144   0.00000   0.01840   0.01761  -3.12413
    D9        0.00039   0.00056   0.00000   0.00671   0.00679   0.00718
   D10        3.14153  -0.00078   0.00000  -0.00993  -0.00998   3.13155
   D11       -3.14122   0.00115   0.00000   0.01420   0.01422  -3.12700
   D12       -0.00007  -0.00019   0.00000  -0.00244  -0.00255  -0.00263
   D13       -0.00077  -0.00083   0.00000  -0.01041  -0.01034  -0.01111
   D14        3.14142  -0.00291   0.00000  -0.03661  -0.03676   3.10466
   D15        3.14127   0.00052   0.00000   0.00642   0.00645  -3.13546
   D16        0.00028  -0.00156   0.00000  -0.01978  -0.01998  -0.01969
   D17        0.00080   0.00102   0.00000   0.01311   0.01312   0.01392
   D18       -3.14127  -0.00189   0.00000  -0.02417  -0.02465   3.11727
   D19       -3.14142   0.00318   0.00000   0.04024   0.04032  -3.10109
   D20       -0.00030   0.00027   0.00000   0.00297   0.00255   0.00225
   D21       -0.00045  -0.00095   0.00000  -0.01228  -0.01216  -0.01261
   D22        3.14137  -0.00167   0.00000  -0.02155  -0.02117   3.12020
   D23        3.14159   0.00181   0.00000   0.02305   0.02384  -3.11776
   D24        0.00022   0.00109   0.00000   0.01377   0.01482   0.01505
   D25       -3.14123   0.00425   0.00000   0.05376   0.05453  -3.08670
   D26        0.00043   0.00314   0.00000   0.03994   0.03989   0.04032
   D27       -0.00011   0.00135   0.00000   0.01663   0.01733   0.01722
   D28        3.14155   0.00024   0.00000   0.00281   0.00269  -3.13894
   D29        3.14158  -0.00442   0.00000  -0.05527  -0.05438   3.08720
   D30       -0.00025  -0.00370   0.00000  -0.04587  -0.04516  -0.04541
   D31        0.00014   0.00380   0.00000   0.04680   0.04608   0.04621
   D32       -3.14146  -0.00068   0.00000  -0.00785  -0.00996   3.13177
   D33       -0.00001  -0.00126   0.00000  -0.01511  -0.01651  -0.01652
   D34       -3.14143  -0.00371   0.00000  -0.04538  -0.04662   3.09514
   D35        3.14158   0.00326   0.00000   0.03998   0.03882  -3.10278
   D36        0.00017   0.00081   0.00000   0.00971   0.00871   0.00888
   D37        0.00000  -0.00129   0.00000  -0.01627  -0.01718  -0.01718
   D38        3.14153  -0.00022   0.00000  -0.00293  -0.00258   3.13896
   D39        3.14141   0.00115   0.00000   0.01390   0.01212  -3.12965
   D40       -0.00024   0.00223   0.00000   0.02725   0.02673   0.02648
         Item               Value     Threshold  Converged?
 Maximum Force            0.108388     0.000450     NO 
 RMS     Force            0.020183     0.000300     NO 
 Maximum Displacement     0.207483     0.001800     NO 
 RMS     Displacement     0.049483     0.001200     NO 
 Predicted change in Energy=-2.969004D-02
 GradGradGradGradGradGradGradGradGradGradGradGradGradGradGradGradGradGrad

                          Input orientation:                          
 ---------------------------------------------------------------------
 Center     Atomic      Atomic             Coordinates (Angstroms)
 Number     Number       Type             X           Y           Z
 ---------------------------------------------------------------------
      1          7           0        1.056606   -0.064552    0.091393
      2          6           0        2.253317   -0.148488    0.059171
      3          6           0        3.710053   -0.131822    0.084204
      4          6           0        4.376615    1.121664    0.068759
      5          6           0        5.785028    1.184591    0.076862
      6          6           0        6.564435    0.000916    0.091803
      7          6           0        5.916351   -1.303934    0.113011
      8          6           0        4.449872   -1.382630    0.100977
      9          6           0        3.739645   -2.635423    0.094559
     10          6           0        4.540926   -3.788403    0.043054
     11          6           0        5.968099   -3.746030    0.054627
     12          6           0        6.648898   -2.525083    0.099470
     13          7           0        9.209137    0.237268    0.064868
     14          6           0        8.014235    0.124904    0.052370
     15          1           0        3.795093    2.051557    0.043267
     16          1           0        6.283065    2.161854    0.055093
     17          1           0        4.056725   -4.778351    0.045036
     18          1           0        6.562473   -4.673712    0.056780
     19          1           0        7.745337   -2.509685    0.110307
 ---------------------------------------------------------------------
                    Distance matrix (angstroms):
                    1          2          3          4          5
     1  N    0.000000
     2  C    1.200083   0.000000
     3  C    2.654309   1.457047   0.000000
     4  C    3.525632   2.474222   1.419779   0.000000
     5  C    4.890658   3.774969   2.457339   1.409841   0.000000
     6  C    5.508218   4.313830   2.857477   2.458285   1.417316
     7  C    5.015342   3.841324   2.498485   2.873372   2.492250
     8  C    3.640285   2.519863   1.453319   2.505573   2.893760
     9  C    3.715924   2.897459   2.503797   3.810787   4.333175
    10  C    5.099989   4.299116   3.750017   4.912883   5.126363
    11  C    6.138192   5.171261   4.261707   5.121276   4.934068
    12  C    6.109666   4.997096   3.790085   4.296857   3.808998
    13  N    8.158159   6.966511   5.511490   4.912783   3.552758
    14  C    6.960317   5.767406   4.311949   3.771747   2.468381
    15  H    3.461148   2.686546   2.185418   1.097050   2.170852
    16  H    5.681028   4.645059   3.447055   2.171804   1.097068
    17  H    5.587734   4.968713   4.659608   5.908729   6.208440
    18  H    7.180539   6.248719   5.363378   6.193909   5.909699
    19  H    7.121668   5.978307   4.683848   4.953454   4.182297
                    6          7          8          9         10
     6  C    0.000000
     7  C    1.457085   0.000000
     8  C    2.526987   1.468638   0.000000
     9  C    3.863901   2.551715   1.440123   0.000000
    10  C    4.296033   2.840647   2.408192   1.405015   0.000000
    11  C    3.794285   2.443342   2.809416   2.490191   1.427849
    12  C    2.527422   1.424084   2.478087   2.911349   2.458192
    13  N    2.655378   3.635940   5.027522   6.178072   6.164308
    14  C    1.455626   2.538971   3.870362   5.088546   5.232392
    15  H    3.446265   3.970380   3.496528   4.687589   5.887393
    16  H    2.179488   3.485616   3.990748   5.429955   6.200060
    17  H    5.397425   3.941371   3.418862   2.166826   1.102022
    18  H    4.674760   3.431624   3.911043   3.482013   2.206947
    19  H    2.774525   2.190670   3.482877   4.007696   3.450781
                   11         12         13         14         15
    11  C    0.000000
    12  C    1.398646   0.000000
    13  N    5.135279   3.766510   0.000000
    14  C    4.378447   2.981407   1.200238   0.000000
    15  H    6.191454   5.393793   5.709989   4.638236   0.000000
    16  H    5.916273   4.701402   3.502287   2.673223   2.490444
    17  H    2.172357   3.435047   7.190562   6.301099   6.834918
    18  H    1.101762   2.150791   5.578765   5.013417   7.272402
    19  H    2.165692   1.096600   3.112961   2.648909   6.034389
                   16         17         18         19
    16  H    0.000000
    17  H    7.288562   0.000000
    18  H    6.841274   2.507960   0.000000
    19  H    4.895361   4.330932   2.466789   0.000000
 Stoichiometry    C12H5N2(1-)
 Framework group  C1[X(C12H5N2)]
 Deg. of freedom    51
 Full point group                 C1      NOp   1
 Largest Abelian subgroup         C1      NOp   1
 Largest concise Abelian subgroup C1      NOp   1
                         Standard orientation:                         
 ---------------------------------------------------------------------
 Center     Atomic      Atomic             Coordinates (Angstroms)
 Number     Number       Type             X           Y           Z
 ---------------------------------------------------------------------
      1          7           0        4.108007   -0.983103    0.008255
      2          6           0        2.913743   -0.869113   -0.022391
      3          6           0        1.457081   -0.849200    0.004485
      4          6           0        0.759224   -2.085538   -0.010885
      5          6           0       -0.650314   -2.113073   -0.001027
      6          6           0       -1.399723   -0.910205    0.015637
      7          6           0       -0.719041    0.377941    0.036825
      8          6           0        0.748935    0.419785    0.022973
      9          6           0        1.490399    1.654347    0.016424
     10          6           0        0.718268    2.827123   -0.033349
     11          6           0       -0.709504    2.820603   -0.019986
     12          6           0       -1.420700    1.617113    0.024971
     13          7           0       -4.049559   -1.080035   -0.008078
     14          6           0       -2.852229   -0.997711   -0.022027
     15          1           0        1.317172   -3.029728   -0.037691
     16          1           0       -1.172769   -3.077504   -0.022766
     17          1           0        1.227185    3.804595   -0.031372
     18          1           0       -1.280385    3.762921   -0.016503
     19          1           0       -2.517165    1.629254    0.037193
 ---------------------------------------------------------------------
 Rotational constants (GHZ):      1.0420910      0.6198928      0.3887274
 Standard basis: STO-3G (5D, 7F)
 There are    75 symmetry adapted cartesian basis functions of A   symmetry.
 There are    75 symmetry adapted basis functions of A   symmetry.
    75 basis functions,   225 primitive gaussians,    75 cartesian basis functions
    46 alpha electrons       46 beta electrons
       nuclear repulsion energy       702.5936391364 Hartrees.
 NAtoms=   19 NActive=   19 NUniq=   19 SFac= 1.00D+00 NAtFMM=   60 NAOKFM=F Big=F
 Integral buffers will be    131072 words long.
 Raffenetti 2 integral format.
 Two-electron integral symmetry is turned on.
 One-electron integrals computed using PRISM.
 NBasis=    75 RedAO= T EigKep=  1.75D-01  NBF=    75
 NBsUse=    75 1.00D-06 EigRej= -1.00D+00 NBFU=    75
 Initial guess from the checkpoint file:  "/tmp/bnp.472670.sequoia/Gau-23761.chk"
 B after Tr=     0.000000    0.000000    0.000000
         Rot=    0.999991    0.000029   -0.000012    0.004206 Ang=   0.48 deg.
 ExpMin= 1.69D-01 ExpMax= 9.91D+01 ExpMxC= 9.91D+01 IAcc=1 IRadAn=         1 AccDes= 0.00D+00
 Harris functional with IExCor=  402 and IRadAn=       1 diagonalized for initial guess.
 HarFok:  IExCor=  402 AccDes= 0.00D+00 IRadAn=         1 IDoV= 1 UseB2=F ITyADJ=14
 ICtDFT=  3500011 ScaDFX=  1.000000  1.000000  1.000000  1.000000
 FoFCou: FMM=F IPFlag=           0 FMFlag=      100000 FMFlg1=           0
         NFxFlg=           0 DoJE=T BraDBF=F KetDBF=T FulRan=T
         wScrn=  0.000000 ICntrl=     500 IOpCl=  0 I1Cent=   200000004 NGrid=           0
         NMat0=    1 NMatS0=      1 NMatT0=    0 NMatD0=    1 NMtDS0=    0 NMtDT0=    0
 Petite list used in FoFCou.
 Keep R1 ints in memory in canonical form, NReq=4993994.
 Requested convergence on RMS density matrix=1.00D-08 within 128 cycles.
 Requested convergence on MAX density matrix=1.00D-06.
 Requested convergence on             energy=1.00D-06.
 No special actions if energy rises.
 Integral accuracy reduced to 1.0D-05 until final iterations.
 Initial convergence to 1.0D-05 achieved.  Increase integral accuracy.
 SCF Done:  E(RB3LYP) =  -562.504235808     A.U. after   19 cycles
            NFock= 19  Conv=0.18D-08     -V/T= 2.0141
 Calling FoFJK, ICntrl=      2127 FMM=F ISym2X=0 I1Cent= 0 IOpClX= 0 NMat=1 NMatS=1 NMatT=0.
 ***** Axes restored to original set *****
 -------------------------------------------------------------------
 Center     Atomic                   Forces (Hartrees/Bohr)
 Number     Number              X              Y              Z
 -------------------------------------------------------------------
      1        7          -0.003872211    0.000052883   -0.000292178
      2        6           0.000031398   -0.002449448    0.000271710
      3        6           0.010265178    0.007318438    0.000513298
      4        6          -0.002848246   -0.002423523   -0.000942450
      5        6           0.000849002   -0.003705840    0.000493043
      6        6          -0.003242754    0.004822872   -0.000826575
      7        6           0.000573690    0.006803522    0.005160206
      8        6           0.012396992   -0.004661777   -0.003091875
      9        6          -0.028600296   -0.004168736    0.004698247
     10        6           0.008169532    0.008319363   -0.003819763
     11        6          -0.000057836   -0.001546637   -0.002819822
     12        6           0.002119951   -0.006696905   -0.000151786
     13        7           0.003382178    0.000246612   -0.000007971
     14        6          -0.002108960   -0.001271575   -0.001311837
     15        1          -0.000555780    0.000094898   -0.000350918
     16        1           0.000789722    0.000376424    0.000100683
     17        1           0.002535987   -0.002745619    0.000183019
     18        1           0.000113327   -0.000674862    0.001359625
     19        1           0.000059125    0.002309911    0.000835344
 -------------------------------------------------------------------
 Cartesian Forces:  Max     0.028600296 RMS     0.005319857

 GradGradGradGradGradGradGradGradGradGradGradGradGradGradGradGradGradGrad
 Berny optimization.
 Using GEDIIS/GDIIS optimizer.
 FormGI is forming the generalized inverse of G from B-inverse, IUseBI=4.
 Internal  Forces:  Max     0.017392514 RMS     0.003290225
 Search for a local minimum.
 Step number   2 out of a maximum of  102
 All quantities printed in internal units (Hartrees-Bohrs-Radians)
 Mixed Optimization -- RFO/linear search
 Update second derivatives using D2CorX and points    1    2
 DE= -2.76D-02 DEPred=-2.97D-02 R= 9.28D-01
 TightC=F SS=  1.41D+00  RLast= 3.38D-01 DXNew= 5.0454D-01 1.0125D+00
 Trust test= 9.28D-01 RLast= 3.38D-01 DXMaxT set to 5.05D-01
 ITU=  1  0
 Use linear search instead of GDIIS.
     Eigenvalues ---    0.01582   0.01603   0.01873   0.01880   0.01904
     Eigenvalues ---    0.01974   0.01995   0.02003   0.02014   0.02069
     Eigenvalues ---    0.02120   0.02122   0.02149   0.02199   0.02221
     Eigenvalues ---    0.02261   0.04853   0.04878   0.15828   0.15991
     Eigenvalues ---    0.15998   0.16000   0.16065   0.21352   0.22204
     Eigenvalues ---    0.22483   0.24154   0.24564   0.24984   0.24993
     Eigenvalues ---    0.25024   0.34800   0.34855   0.34886   0.35106
     Eigenvalues ---    0.35327   0.38171   0.39705   0.39980   0.40558
     Eigenvalues ---    0.41104   0.42909   0.43109   0.44740   0.45239
     Eigenvalues ---    0.45757   0.46285   0.46769   0.50717   1.27362
     Eigenvalues ---    1.33176
 RFO step:  Lambda=-4.61415695D-03 EMin= 1.58180626D-02
 Quartic linear search produced a step of  0.18666.
 Iteration  1 RMS(Cart)=  0.04665850 RMS(Int)=  0.00160000
 Iteration  2 RMS(Cart)=  0.00232968 RMS(Int)=  0.00062752
 Iteration  3 RMS(Cart)=  0.00000219 RMS(Int)=  0.00062752
 Iteration  4 RMS(Cart)=  0.00000000 RMS(Int)=  0.00062752
 Variable       Old X    -DE/DX   Delta X   Delta X   Delta X     New X
                                 (Linear)    (Quad)   (Total)
    R1        2.26783   0.00386   0.01404  -0.00829   0.00576   2.27359
    R2        2.75342   0.00387   0.00660   0.00567   0.01227   2.76569
    R3        2.68299  -0.00404   0.00693  -0.01654  -0.00965   2.67334
    R4        2.74637   0.00038   0.01471  -0.01145   0.00324   2.74962
    R5        2.66421  -0.00008   0.00615  -0.00586   0.00026   2.66447
    R6        2.07312   0.00038   0.00268  -0.00104   0.00164   2.07477
    R7        2.67834  -0.00338   0.00590  -0.01393  -0.00801   2.67033
    R8        2.07316   0.00069   0.00261   0.00005   0.00267   2.07583
    R9        2.75349   0.00070   0.01373  -0.00966   0.00411   2.75760
   R10        2.75073   0.00122   0.00641  -0.00196   0.00445   2.75518
   R11        2.77532   0.00114   0.01706  -0.01025   0.00677   2.78209
   R12        2.69113   0.00130   0.00250   0.00125   0.00369   2.69482
   R13        2.72144   0.01142   0.01226   0.02024   0.03249   2.75393
   R14        2.65509   0.00708   0.00477   0.01362   0.01846   2.67355
   R15        2.69824   0.00160   0.01448  -0.00923   0.00531   2.70355
   R16        2.08252   0.00135   0.00569  -0.00045   0.00524   2.08776
   R17        2.64306  -0.00188   0.00091  -0.00642  -0.00551   2.63755
   R18        2.08203   0.00063   0.00493  -0.00216   0.00277   2.08480
   R19        2.07227   0.00010   0.00227  -0.00163   0.00064   2.07292
   R20        2.26812   0.00339   0.01383  -0.00853   0.00530   2.27343
    A1        2.07065   0.00116   0.00153   0.00372   0.00512   2.07577
    A2        2.09359  -0.00579  -0.00507  -0.02277  -0.02797   2.06562
    A3        2.11880   0.00461   0.00351   0.01861   0.02194   2.14074
    A4        2.10407  -0.00119   0.00111  -0.00790  -0.00685   2.09721
    A5        2.09410   0.00016  -0.00153   0.00166   0.00015   2.09424
    A6        2.08500   0.00103   0.00042   0.00618   0.00661   2.09161
    A7        2.10848  -0.00039   0.00187  -0.00427  -0.00245   2.10603
    A8        2.08651   0.00074   0.00079   0.00440   0.00512   2.09163
    A9        2.08807  -0.00035  -0.00268  -0.00035  -0.00309   2.08498
   A10        2.09839   0.00073  -0.00175   0.00536   0.00344   2.10183
   A11        2.06723   0.00122   0.00194   0.00339   0.00499   2.07223
   A12        2.11727  -0.00198  -0.00025  -0.00957  -0.01010   2.10716
   A13        2.08518   0.00117   0.00304   0.00357   0.00638   2.09156
   A14        2.14001   0.00014  -0.00230   0.00100  -0.00191   2.13810
   A15        2.05739  -0.00135  -0.00086  -0.00645  -0.00844   2.04895
   A16        2.05136  -0.00494  -0.00780  -0.01571  -0.02325   2.02811
   A17        2.09163  -0.00533  -0.00463  -0.02264  -0.02705   2.06458
   A18        2.14016   0.01027   0.01243   0.03835   0.05029   2.19045
   A19        2.01837  -0.01739  -0.02091  -0.06100  -0.08183   1.93654
   A20        2.14764   0.00907   0.01150   0.03478   0.04556   2.19320
   A21        2.07890  -0.00093  -0.00240   0.00458   0.00162   2.08051
   A22        2.05535  -0.00820  -0.00934  -0.04150  -0.05109   2.00426
   A23        2.10911   0.00162   0.00346   0.00094   0.00385   2.11296
   A24        2.11093  -0.00108   0.00222  -0.00635  -0.00432   2.10661
   A25        2.06277  -0.00056  -0.00575   0.00449  -0.00128   2.06149
   A26        2.09263  -0.00230  -0.00582  -0.00990  -0.01639   2.07624
   A27        2.09692  -0.00126  -0.00256  -0.00752  -0.00987   2.08705
   A28        2.09354   0.00355   0.00836   0.01719   0.02576   2.11930
   A29        3.22308  -0.00049   0.00969  -0.04142  -0.03173   3.19134
   A30        3.15013  -0.00016   0.00157  -0.00515  -0.00358   3.14655
   A31        3.18938  -0.00082   0.00891  -0.05925  -0.05035   3.13903
   A32        3.18201  -0.00009   0.00763  -0.00993  -0.00231   3.17970
    D1       -3.12917   0.00032   0.00224   0.01456   0.01676  -3.11241
    D2        0.00497   0.00015   0.00085   0.00683   0.00770   0.01267
    D3       -0.00622  -0.00035  -0.00115  -0.01337  -0.01477  -0.02098
    D4        3.12792  -0.00052  -0.00255  -0.02110  -0.02382   3.10410
    D5        3.13164  -0.00006  -0.00179  -0.00253  -0.00400   3.12764
    D6       -0.00142  -0.00017  -0.00015  -0.00296  -0.00347  -0.00488
    D7        0.00892   0.00054   0.00165   0.02548   0.02701   0.03593
    D8       -3.12413   0.00044   0.00329   0.02505   0.02754  -3.09659
    D9        0.00718   0.00016   0.00127   0.00435   0.00562   0.01280
   D10        3.13155  -0.00026  -0.00186  -0.01063  -0.01261   3.11894
   D11       -3.12700   0.00034   0.00265   0.01205   0.01469  -3.11230
   D12       -0.00263  -0.00009  -0.00048  -0.00292  -0.00354  -0.00617
   D13       -0.01111  -0.00022  -0.00193  -0.00861  -0.01053  -0.02164
   D14        3.10466  -0.00115  -0.00686  -0.04447  -0.05164   3.05302
   D15       -3.13546   0.00019   0.00120   0.00633   0.00755  -3.12791
   D16       -0.01969  -0.00074  -0.00373  -0.02953  -0.03355  -0.05325
   D17        0.01392   0.00046   0.00245   0.02140   0.02396   0.03788
   D18        3.11727  -0.00096  -0.00460  -0.03805  -0.04322   3.07405
   D19       -3.10109   0.00136   0.00753   0.05810   0.06567  -3.03543
   D20        0.00225  -0.00006   0.00048  -0.00134  -0.00151   0.00075
   D21       -0.01261  -0.00057  -0.00227  -0.02902  -0.03089  -0.04350
   D22        3.12020  -0.00055  -0.00395  -0.02891  -0.03191   3.08829
   D23       -3.11776   0.00075   0.00445   0.02748   0.03278  -3.08497
   D24        0.01505   0.00077   0.00277   0.02759   0.03177   0.04681
   D25       -3.08670   0.00215   0.01018   0.08492   0.09626  -2.99044
   D26        0.04032   0.00154   0.00745   0.06680   0.07437   0.11468
   D27        0.01722   0.00080   0.00323   0.02658   0.03094   0.04816
   D28       -3.13894   0.00020   0.00050   0.00845   0.00905  -3.12990
   D29        3.08720  -0.00160  -0.01015  -0.07090  -0.07960   3.00760
   D30       -0.04541  -0.00163  -0.00843  -0.07106  -0.07859  -0.12400
   D31        0.04621   0.00158   0.00860   0.06651   0.07413   0.12035
   D32        3.13177   0.00005  -0.00186   0.01910   0.01463  -3.13679
   D33       -0.01652  -0.00073  -0.00308  -0.01832  -0.02313  -0.03965
   D34        3.09514  -0.00159  -0.00870  -0.05485  -0.06458   3.03057
   D35       -3.10278   0.00057   0.00725   0.02713   0.03265  -3.07013
   D36        0.00888  -0.00028   0.00163  -0.00940  -0.00880   0.00009
   D37       -0.01718  -0.00088  -0.00321  -0.03211  -0.03644  -0.05362
   D38        3.13896  -0.00024  -0.00048  -0.01381  -0.01382   3.12514
   D39       -3.12965  -0.00004   0.00226   0.00361   0.00402  -3.12563
   D40        0.02648   0.00060   0.00499   0.02191   0.02664   0.05313
         Item               Value     Threshold  Converged?
 Maximum Force            0.017393     0.000450     NO 
 RMS     Force            0.003290     0.000300     NO 
 Maximum Displacement     0.161045     0.001800     NO 
 RMS     Displacement     0.047477     0.001200     NO 
 Predicted change in Energy=-2.721338D-03
 GradGradGradGradGradGradGradGradGradGradGradGradGradGradGradGradGradGrad

                          Input orientation:                          
 ---------------------------------------------------------------------
 Center     Atomic      Atomic             Coordinates (Angstroms)
 Number     Number       Type             X           Y           Z
 ---------------------------------------------------------------------
      1          7           0        1.063507   -0.135151    0.031292
      2          6           0        2.265557   -0.164979    0.072630
      3          6           0        3.727812   -0.128380    0.121895
      4          6           0        4.383043    1.124509    0.074650
      5          6           0        5.791546    1.188186    0.084866
      6          6           0        6.566125    0.007053    0.126604
      7          6           0        5.918859   -1.299405    0.187083
      8          6           0        4.449821   -1.391169    0.156470
      9          6           0        3.679105   -2.627967    0.146518
     10          6           0        4.527329   -3.751624    0.006788
     11          6           0        5.957579   -3.724749    0.028007
     12          6           0        6.653547   -2.521050    0.149647
     13          7           0        9.214827    0.210975   -0.020354
     14          6           0        8.016312    0.115959    0.022688
     15          1           0        3.794778    2.049560    0.014215
     16          1           0        6.295097    2.162703    0.026455
     17          1           0        4.082585   -4.762545   -0.021638
     18          1           0        6.538780   -4.662389    0.015896
     19          1           0        7.749701   -2.494895    0.181896
 ---------------------------------------------------------------------
                    Distance matrix (angstroms):
                    1          2          3          4          5
     1  N    0.000000
     2  C    1.203130   0.000000
     3  C    2.665853   1.463542   0.000000
     4  C    3.550767   2.479220   1.414671   0.000000
     5  C    4.910035   3.776746   2.448207   1.409979   0.000000
     6  C    5.505280   4.304346   2.841546   2.453009   1.413077
     7  C    4.995418   3.827093   2.485204   2.871713   2.492943
     8  C    3.613914   2.506308   1.455035   2.517895   2.908338
     9  C    3.615075   2.840755   2.500183   3.818609   4.362251
    10  C    5.007749   4.240752   3.712193   4.878740   5.099614
    11  C    6.069363   5.128838   4.232558   5.098691   4.916068
    12  C    6.079069   4.981111   3.779625   4.295453   3.808631
    13  N    8.158829   6.960053   5.499340   4.918303   3.561581
    14  C    6.957344   5.757830   4.296601   3.771010   2.470449
    15  H    3.497584   2.691860   2.181629   1.097920   2.175786
    16  H    5.713990   4.653754   3.442255   2.176262   1.098480
    17  H    5.525433   4.944501   4.649941   5.895503   6.192180
    18  H    7.104558   6.204059   5.335730   6.175666   5.898503
    19  H    7.091986   5.959554   4.666861   4.944287   4.172394
                    6          7          8          9         10
     6  C    0.000000
     7  C    1.459262   0.000000
     8  C    2.536663   1.472220   0.000000
     9  C    3.908786   2.604461   1.457316   0.000000
    10  C    4.277698   2.825286   2.366466   1.414784   0.000000
    11  C    3.782380   2.430863   2.781265   2.531486   1.430660
    12  C    2.529719   1.426038   2.476508   2.976365   2.460798
    13  N    2.660602   3.631485   5.030250   6.223476   6.138042
    14  C    1.457979   2.535664   3.874171   5.133793   5.208786
    15  H    3.444536   3.969531   3.505415   4.680827   5.847258
    16  H    2.174928   3.486194   4.006489   5.459702   6.172896
    17  H    5.379499   3.925405   3.395992   2.178875   1.104793
    18  H    4.670834   3.423926   3.883863   3.511933   2.208056
    19  H    2.768331   2.186597   3.479665   4.072924   3.463193
                   11         12         13         14         15
    11  C    0.000000
    12  C    1.395729   0.000000
    13  N    5.109004   3.748735   0.000000
    14  C    4.357688   2.971037   1.203045   0.000000
    15  H    6.166080   5.392716   5.723506   4.643301   0.000000
    16  H    5.897118   4.699064   3.512301   2.674277   2.502908
    17  H    2.143616   3.415185   7.146734   6.267055   6.818277
    18  H    1.103227   2.148579   5.559876   5.001575   7.251194
    19  H    2.178973   1.096940   3.083704   2.629256   6.026741
                   16         17         18         19
    16  H    0.000000
    17  H    7.270253   0.000000
    18  H    6.829449   2.458523   0.000000
    19  H    4.881931   4.316411   2.488356   0.000000
 Stoichiometry    C12H5N2(1-)
 Framework group  C1[X(C12H5N2)]
 Deg. of freedom    51
 Full point group                 C1      NOp   1
 Largest Abelian subgroup         C1      NOp   1
 Largest concise Abelian subgroup C1      NOp   1
                         Standard orientation:                         
 ---------------------------------------------------------------------
 Center     Atomic      Atomic             Coordinates (Angstroms)
 Number     Number       Type             X           Y           Z
 ---------------------------------------------------------------------
      1          7           0        4.084110   -0.991191   -0.064636
      2          6           0        2.884680   -0.908969   -0.018480
      3          6           0        1.422435   -0.881765    0.036799
      4          6           0        0.713088   -2.105022   -0.005164
      5          6           0       -0.696797   -2.107286    0.010904
      6          6           0       -1.419039   -0.893467    0.053316
      7          6           0       -0.715263    0.383681    0.108432
      8          6           0        0.756238    0.411330    0.071663
      9          6           0        1.580021    1.613373    0.055993
     10          6           0        0.780949    2.772630   -0.082642
     11          6           0       -0.649015    2.808101   -0.055560
     12          6           0       -1.396217    1.636085    0.071423
     13          7           0       -4.074695   -0.982138   -0.082458
     14          6           0       -2.873012   -0.939319   -0.044482
     15          1           0        1.260267   -3.054925   -0.066051
     16          1           0       -1.242535   -3.059061   -0.043421
     17          1           0        1.269162    3.763170   -0.114989
     18          1           0       -1.188888    3.770135   -0.067273
     19          1           0       -2.492327    1.657749    0.108178
 ---------------------------------------------------------------------
 Rotational constants (GHZ):      1.0573607      0.6183987      0.3906096
 Standard basis: STO-3G (5D, 7F)
 There are    75 symmetry adapted cartesian basis functions of A   symmetry.
 There are    75 symmetry adapted basis functions of A   symmetry.
    75 basis functions,   225 primitive gaussians,    75 cartesian basis functions
    46 alpha electrons       46 beta electrons
       nuclear repulsion energy       702.8564387377 Hartrees.
 NAtoms=   19 NActive=   19 NUniq=   19 SFac= 1.00D+00 NAtFMM=   60 NAOKFM=F Big=F
 Integral buffers will be    131072 words long.
 Raffenetti 2 integral format.
 Two-electron integral symmetry is turned on.
 One-electron integrals computed using PRISM.
 NBasis=    75 RedAO= T EigKep=  1.77D-01  NBF=    75
 NBsUse=    75 1.00D-06 EigRej= -1.00D+00 NBFU=    75
 Initial guess from the checkpoint file:  "/tmp/bnp.472670.sequoia/Gau-23761.chk"
 B after Tr=     0.000000    0.000000    0.000000
         Rot=    0.999958   -0.000044   -0.000019    0.009164 Ang=  -1.05 deg.
 ExpMin= 1.69D-01 ExpMax= 9.91D+01 ExpMxC= 9.91D+01 IAcc=1 IRadAn=         1 AccDes= 0.00D+00
 Harris functional with IExCor=  402 and IRadAn=       1 diagonalized for initial guess.
 HarFok:  IExCor=  402 AccDes= 0.00D+00 IRadAn=         1 IDoV= 1 UseB2=F ITyADJ=14
 ICtDFT=  3500011 ScaDFX=  1.000000  1.000000  1.000000  1.000000
 FoFCou: FMM=F IPFlag=           0 FMFlag=      100000 FMFlg1=           0
         NFxFlg=           0 DoJE=T BraDBF=F KetDBF=T FulRan=T
         wScrn=  0.000000 ICntrl=     500 IOpCl=  0 I1Cent=   200000004 NGrid=           0
         NMat0=    1 NMatS0=      1 NMatT0=    0 NMatD0=    1 NMtDS0=    0 NMtDT0=    0
 Petite list used in FoFCou.
 Keep R1 ints in memory in canonical form, NReq=4993994.
 Requested convergence on RMS density matrix=1.00D-08 within 128 cycles.
 Requested convergence on MAX density matrix=1.00D-06.
 Requested convergence on             energy=1.00D-06.
 No special actions if energy rises.
 Integral accuracy reduced to 1.0D-05 until final iterations.
 Initial convergence to 1.0D-05 achieved.  Increase integral accuracy.
 SCF Done:  E(RB3LYP) =  -562.506978645     A.U. after   19 cycles
            NFock= 19  Conv=0.23D-08     -V/T= 2.0141
 Calling FoFJK, ICntrl=      2127 FMM=F ISym2X=0 I1Cent= 0 IOpClX= 0 NMat=1 NMatS=1 NMatT=0.
 ***** Axes restored to original set *****
 -------------------------------------------------------------------
 Center     Atomic                   Forces (Hartrees/Bohr)
 Number     Number              X              Y              Z
 -------------------------------------------------------------------
      1        7           0.004323278    0.001568600    0.001321997
      2        6          -0.006470730   -0.003778839   -0.002226623
      3        6           0.004379443    0.002062590    0.000875949
      4        6          -0.002597470   -0.000397660    0.000383079
      5        6           0.002190399   -0.000060535   -0.000403456
      6        6          -0.004042773   -0.000284940   -0.000630759
      7        6          -0.000199301    0.002469086   -0.002322276
      8        6           0.005471251    0.005663022    0.000957176
      9        6          -0.007675931   -0.001726748   -0.000835125
     10        6           0.004503866   -0.003546536    0.002237655
     11        6          -0.000924886   -0.000020790    0.001458296
     12        6           0.001768862   -0.000727389   -0.000753110
     13        7          -0.004084214   -0.000191723   -0.000365845
     14        6           0.004872199   -0.000307526    0.001496344
     15        1           0.000335103   -0.000353828    0.000298876
     16        1          -0.000191810   -0.000322104    0.000025437
     17        1          -0.000073135   -0.000091932   -0.001294528
     18        1          -0.001322271    0.000075819   -0.000651631
     19        1          -0.000261878   -0.000028568    0.000428545
 -------------------------------------------------------------------
 Cartesian Forces:  Max     0.007675931 RMS     0.002536353

 GradGradGradGradGradGradGradGradGradGradGradGradGradGradGradGradGradGrad
 Berny optimization.
 Using GEDIIS/GDIIS optimizer.
 FormGI is forming the generalized inverse of G from B-inverse, IUseBI=4.
 Internal  Forces:  Max     0.006152901 RMS     0.001337756
 Search for a local minimum.
 Step number   3 out of a maximum of  102
 All quantities printed in internal units (Hartrees-Bohrs-Radians)
 Mixed Optimization -- RFO/linear search
 Update second derivatives using D2CorX and points    1    2    3
 DE= -2.74D-03 DEPred=-2.72D-03 R= 1.01D+00
 TightC=F SS=  1.41D+00  RLast= 2.89D-01 DXNew= 8.4853D-01 8.6662D-01
 Trust test= 1.01D+00 RLast= 2.89D-01 DXMaxT set to 8.49D-01
 ITU=  1  1  0
 Use linear search instead of GDIIS.
     Eigenvalues ---    0.01507   0.01596   0.01875   0.01905   0.01928
     Eigenvalues ---    0.01995   0.02008   0.02009   0.02034   0.02115
     Eigenvalues ---    0.02123   0.02149   0.02170   0.02209   0.02241
     Eigenvalues ---    0.02741   0.04856   0.04881   0.14943   0.15982
     Eigenvalues ---    0.15992   0.15998   0.16132   0.17973   0.22168
     Eigenvalues ---    0.22486   0.23919   0.24594   0.24932   0.24950
     Eigenvalues ---    0.25186   0.34800   0.34856   0.34895   0.35127
     Eigenvalues ---    0.35298   0.37855   0.39226   0.39950   0.40504
     Eigenvalues ---    0.40860   0.42581   0.43114   0.44698   0.44939
     Eigenvalues ---    0.45800   0.46276   0.46774   0.51198   1.27362
     Eigenvalues ---    1.37509
 RFO step:  Lambda=-1.73413447D-03 EMin= 1.50650612D-02
 Quartic linear search produced a step of -0.02124.
 Iteration  1 RMS(Cart)=  0.04508969 RMS(Int)=  0.00546991
 Iteration  2 RMS(Cart)=  0.00686434 RMS(Int)=  0.00009454
 Iteration  3 RMS(Cart)=  0.00011414 RMS(Int)=  0.00005554
 Iteration  4 RMS(Cart)=  0.00000003 RMS(Int)=  0.00005554
 Variable       Old X    -DE/DX   Delta X   Delta X   Delta X     New X
                                 (Linear)    (Quad)   (Total)
    R1        2.27359  -0.00433  -0.00012   0.00044   0.00031   2.27390
    R2        2.76569   0.00223  -0.00026   0.01024   0.00998   2.77567
    R3        2.67334  -0.00149   0.00020  -0.00504  -0.00484   2.66850
    R4        2.74962  -0.00141  -0.00007  -0.00010  -0.00017   2.74945
    R5        2.66447   0.00090  -0.00001   0.00305   0.00304   2.66752
    R6        2.07477  -0.00049  -0.00003  -0.00048  -0.00052   2.07425
    R7        2.67033  -0.00074   0.00017  -0.00322  -0.00305   2.66728
    R8        2.07583  -0.00038  -0.00006   0.00016   0.00010   2.07593
    R9        2.75760  -0.00184  -0.00009  -0.00119  -0.00128   2.75633
   R10        2.75518   0.00067  -0.00009   0.00392   0.00382   2.75901
   R11        2.78209  -0.00175  -0.00014   0.00036   0.00019   2.78228
   R12        2.69482   0.00177  -0.00008   0.00520   0.00507   2.69989
   R13        2.75393   0.00615  -0.00069   0.02573   0.02506   2.77899
   R14        2.67355   0.00386  -0.00039   0.01471   0.01438   2.68794
   R15        2.70355  -0.00137  -0.00011   0.00079   0.00071   2.70427
   R16        2.08776   0.00015  -0.00011   0.00285   0.00274   2.09049
   R17        2.63755   0.00115   0.00012   0.00040   0.00049   2.63804
   R18        2.08480  -0.00075  -0.00006  -0.00053  -0.00059   2.08421
   R19        2.07292  -0.00025  -0.00001  -0.00018  -0.00019   2.07273
   R20        2.27343  -0.00407  -0.00011   0.00045   0.00033   2.27376
    A1        2.07577   0.00063  -0.00011   0.00427   0.00416   2.07993
    A2        2.06562  -0.00153   0.00059  -0.01546  -0.01487   2.05075
    A3        2.14074   0.00091  -0.00047   0.01123   0.01077   2.15152
    A4        2.09721  -0.00110   0.00015  -0.00589  -0.00575   2.09147
    A5        2.09424   0.00064   0.00000   0.00236   0.00235   2.09660
    A6        2.09161   0.00046  -0.00014   0.00356   0.00342   2.09503
    A7        2.10603  -0.00063   0.00005  -0.00257  -0.00253   2.10350
    A8        2.09163   0.00030  -0.00011   0.00282   0.00270   2.09433
    A9        2.08498   0.00034   0.00007  -0.00001   0.00004   2.08503
   A10        2.10183   0.00120  -0.00007   0.00557   0.00548   2.10730
   A11        2.07223   0.00006  -0.00011   0.00264   0.00252   2.07475
   A12        2.10716  -0.00123   0.00021  -0.00749  -0.00730   2.09987
   A13        2.09156  -0.00081  -0.00014  -0.00073  -0.00084   2.09072
   A14        2.13810   0.00095   0.00004   0.00418   0.00427   2.14237
   A15        2.04895  -0.00009   0.00018  -0.00279  -0.00269   2.04626
   A16        2.02811   0.00043   0.00049  -0.00773  -0.00724   2.02087
   A17        2.06458  -0.00139   0.00057  -0.01459  -0.01403   2.05055
   A18        2.19045   0.00097  -0.00107   0.02233   0.02128   2.21174
   A19        1.93654  -0.00207   0.00174  -0.03504  -0.03315   1.90339
   A20        2.19320   0.00019  -0.00097   0.01761   0.01663   2.20982
   A21        2.08051  -0.00003  -0.00003   0.00130   0.00111   2.08162
   A22        2.00426  -0.00005   0.00109  -0.01630  -0.01538   1.98887
   A23        2.11296   0.00119  -0.00008   0.00573   0.00564   2.11860
   A24        2.10661  -0.00176   0.00009  -0.00957  -0.00950   2.09711
   A25        2.06149   0.00061   0.00003   0.00457   0.00457   2.06606
   A26        2.07624  -0.00011   0.00035  -0.00825  -0.00798   2.06826
   A27        2.08705   0.00004   0.00021  -0.00224  -0.00200   2.08505
   A28        2.11930   0.00008  -0.00055   0.01069   0.01018   2.12947
   A29        3.19134   0.00390   0.00067   0.20986   0.21054   3.40188
   A30        3.14655   0.00028   0.00008   0.00469   0.00476   3.15131
   A31        3.13903   0.00233   0.00107   0.11727   0.11834   3.25737
   A32        3.17970  -0.00108   0.00005  -0.02052  -0.02048   3.15923
    D1       -3.11241  -0.00006  -0.00036   0.00119   0.00086  -3.11156
    D2        0.01267   0.00003  -0.00016   0.00310   0.00295   0.01562
    D3       -0.02098   0.00015   0.00031   0.00161   0.00194  -0.01904
    D4        3.10410   0.00024   0.00051   0.00352   0.00404   3.10813
    D5        3.12764   0.00016   0.00008   0.00391   0.00397   3.13161
    D6       -0.00488   0.00008   0.00007   0.00231   0.00245  -0.00244
    D7        0.03593  -0.00011  -0.00057   0.00296   0.00239   0.03832
    D8       -3.09659  -0.00019  -0.00058   0.00136   0.00087  -3.09572
    D9        0.01280  -0.00016  -0.00012  -0.00448  -0.00461   0.00820
   D10        3.11894   0.00014   0.00027   0.00304   0.00332   3.12226
   D11       -3.11230  -0.00025  -0.00031  -0.00638  -0.00669  -3.11899
   D12       -0.00617   0.00004   0.00008   0.00114   0.00124  -0.00493
   D13       -0.02164   0.00012   0.00022   0.00225   0.00247  -0.01917
   D14        3.05302   0.00065   0.00110   0.01431   0.01547   3.06848
   D15       -3.12791  -0.00017  -0.00016  -0.00530  -0.00547  -3.13338
   D16       -0.05325   0.00035   0.00071   0.00676   0.00753  -0.04572
   D17        0.03788  -0.00012  -0.00051   0.00260   0.00212   0.04000
[...]
 ! D14   D(4,5,6,14)           179.1311         -DE/DX =    0.0                 !
 ! D15   D(16,5,6,7)          -179.8659         -DE/DX =    0.0                 !
 ! D16   D(16,5,6,14)           -0.5505         -DE/DX =    0.0                 !
 ! D17   D(5,6,7,8)              0.6155         -DE/DX =    0.0                 !
 ! D18   D(5,6,7,12)           179.3866         -DE/DX =    0.0                 !
 ! D19   D(14,6,7,8)          -178.6889         -DE/DX =    0.0                 !
 ! D20   D(14,6,7,12)            0.0822         -DE/DX =    0.0                 !
 ! D21   D(6,7,8,3)             -0.8684         -DE/DX =    0.0                 !
 ! D22   D(6,7,8,9)            178.8354         -DE/DX =    0.0                 !
 ! D23   D(12,7,8,3)          -179.7174         -DE/DX =    0.0                 !
 ! D24   D(12,7,8,9)            -0.0136         -DE/DX =    0.0                 !
 ! D25   D(6,7,12,11)         -177.7919         -DE/DX =    0.0                 !
 ! D26   D(6,7,12,19)            1.8213         -DE/DX =    0.0                 !
 ! D27   D(8,7,12,11)            1.0002         -DE/DX =    0.0                 !
 ! D28   D(8,7,12,19)         -179.3865         -DE/DX =    0.0                 !
 ! D29   D(3,8,9,10)           178.3235         -DE/DX =    0.0                 !
 ! D30   D(7,8,9,10)            -1.3817         -DE/DX =    0.0                 !
 ! D31   D(8,9,10,11)            2.0072         -DE/DX =    0.0                 !
 ! D32   D(8,9,10,17)         -179.384          -DE/DX =    0.0                 !
 ! D33   D(9,10,11,12)          -1.2627         -DE/DX =    0.0                 !
 ! D34   D(9,10,11,18)         178.0801         -DE/DX =    0.0                 !
 ! D35   D(17,10,11,12)       -179.9221         -DE/DX =    0.0                 !
 ! D36   D(17,10,11,18)         -0.5794         -DE/DX =    0.0                 !
 ! D37   D(10,11,12,7)          -0.4641         -DE/DX =    0.0                 !
 ! D38   D(10,11,12,19)        179.9294         -DE/DX =    0.0                 !
 ! D39   D(18,11,12,7)        -179.8184         -DE/DX =    0.0                 !
 ! D40   D(18,11,12,19)          0.575          -DE/DX =    0.0                 !
 --------------------------------------------------------------------------------
 GradGradGradGradGradGradGradGradGradGradGradGradGradGradGradGradGradGrad

                          Input orientation:                          
 ---------------------------------------------------------------------
 Center     Atomic      Atomic             Coordinates (Angstroms)
 Number     Number       Type             X           Y           Z
 ---------------------------------------------------------------------
      1          7           0        1.078272   -0.139834    0.082589
      2          6           0        2.276928   -0.226215    0.076781
      3          6           0        3.748775   -0.134269    0.084514
      4          6           0        4.378517    1.126079    0.070867
      5          6           0        5.793470    1.191828    0.070313
      6          6           0        6.566738    0.015037    0.082387
      7          6           0        5.935135   -1.297805    0.099751
      8          6           0        4.470222   -1.385283    0.090841
      9          6           0        3.642915   -2.611636    0.081499
     10          6           0        4.515915   -3.743456    0.049753
     11          6           0        5.942643   -3.722444    0.070004
     12          6           0        6.662385   -2.523933    0.099826
     13          7           0        9.220423    0.232516    0.053416
     14          6           0        8.024072    0.132590    0.061854
     15          1           0        3.785281    2.048685    0.058208
     16          1           0        6.294882    2.168761    0.055073
     17          1           0        4.072843   -4.755552    0.028235
     18          1           0        6.507879   -4.669086    0.073222
     19          1           0        7.758614   -2.511343    0.116478
 ---------------------------------------------------------------------
                    Distance matrix (angstroms):
                    1          2          3          4          5
     1  N    0.000000
     2  C    1.201778   0.000000
     3  C    2.670509   1.474736   0.000000
     4  C    3.534726   2.499082   1.408985   0.000000
     5  C    4.899650   3.791696   2.437112   1.416480   0.000000
     6  C    5.490650   4.296592   2.821916   2.454151   1.408163
     7  C    4.993026   3.811996   2.476736   2.880818   2.493834
     8  C    3.613382   2.480760   1.444147   2.513115   2.897052
     9  C    3.561909   2.748849   2.479630   3.809428   4.369365
    10  C    4.980417   4.169505   3.689979   4.871519   5.097999
    11  C    6.041303   5.065681   4.205742   5.094572   4.916535
    12  C    6.071782   4.950987   3.768269   4.305750   3.816119
    13  N    8.150712   6.958671   5.484016   4.923699   3.558731
    14  C    6.951171   5.758353   4.283678   3.778515   2.469341
    15  H    3.481107   2.729586   2.183417   1.096946   2.183386
    16  H    5.704681   4.677642   3.433289   2.181717   1.098200
    17  H    5.502296   4.872634   4.632974   5.889723   6.191418
    18  H    7.070703   6.135149   5.308234   6.173988   5.904295
    19  H    7.088876   5.939046   4.661579   4.965681   4.192541
                    6          7          8          9         10
     6  C    0.000000
     7  C    1.456976   0.000000
     8  C    2.521180   1.467550   0.000000
     9  C    3.930414   2.642112   1.479347   0.000000
    10  C    4.281730   2.828054   2.358973   1.429739   0.000000
    11  C    3.789250   2.424832   2.762387   2.553972   1.427026
    12  C    2.540831   1.425581   2.470261   3.020800   2.469226
    13  N    2.662739   3.624520   5.018275   6.260877   6.159607
    14  C    1.462212   2.532020   3.864535   5.169691   5.227910
    15  H    3.445694   3.977763   3.501762   4.662553   5.838046
    16  H    2.170985   3.485469   3.995233   5.466793   6.174063
    17  H    5.383397   3.928009   3.394193   2.187247   1.105041
    18  H    4.684502   3.419689   3.864676   3.527207   2.196648
    19  H    2.793623   2.190441   3.475945   4.117070   3.469532
                   11         12         13         14         15
    11  C    0.000000
    12  C    1.398337   0.000000
    13  N    5.136713   3.760814   0.000000
    14  C    4.381061   2.985422   1.200546   0.000000
    15  H    6.161191   5.402619   5.730555   4.651751   0.000000
    16  H    5.901744   4.707275   3.508253   2.671355   2.512475
    17  H    2.136634   3.419207   7.167917   6.285481   6.810376
    18  H    1.102558   2.150874   5.602141   5.035381   7.248531
    19  H    2.183272   1.096428   3.109602   2.657787   6.048523
                   16         17         18         19
    16  H    0.000000
    17  H    7.272158   0.000000
    18  H    6.841187   2.436986   0.000000
    19  H    4.904045   4.316152   2.494406   0.000000
 Stoichiometry    C12H5N2(1-)
 Framework group  C1[X(C12H5N2)]
 Deg. of freedom    51
 Full point group                 C1      NOp   1
 Largest Abelian subgroup         C1      NOp   1
 Largest concise Abelian subgroup C1      NOp   1
                         Standard orientation:                         
 ---------------------------------------------------------------------
 Center     Atomic      Atomic             Coordinates (Angstroms)
 Number     Number       Type             X           Y           Z
 ---------------------------------------------------------------------
      1          7           0        4.052251   -1.064696    0.000386
      2          6           0        2.861428   -0.902840   -0.003549
      3          6           0        1.386727   -0.901712    0.006557
      4          6           0        0.678678   -2.119807   -0.005612
      5          6           0       -0.737603   -2.096126   -0.003892
      6          6           0       -1.435041   -0.872876    0.008965
      7          6           0       -0.721816    0.397493    0.024829
      8          6           0        0.745682    0.392341    0.013558
      9          6           0        1.648719    1.564035    0.002438
     10          6           0        0.848839    2.748686   -0.028348
     11          6           0       -0.576336    2.817763   -0.005821
     12          6           0       -1.370233    1.667074    0.025597
     13          7           0       -4.097204   -0.922452   -0.015706
     14          6           0       -2.896920   -0.898226   -0.009207
     15          1           0        1.212485   -3.078017   -0.018866
     16          1           0       -1.299694   -3.039471   -0.017967
     17          1           0        1.354866    3.730796   -0.050952
     18          1           0       -1.080697    3.798192   -0.002063
     19          1           0       -2.465043    1.723698    0.043996
 ---------------------------------------------------------------------
 Rotational constants (GHZ):      1.0626919      0.6186582      0.3910448

 **********************************************************************

            Population analysis using the SCF density.

 **********************************************************************

 Orbital symmetries:
       Occupied  (A) (A) (A) (A) (A) (A) (A) (A) (A) (A) (A) (A)
                 (A) (A) (A) (A) (A) (A) (A) (A) (A) (A) (A) (A)
                 (A) (A) (A) (A) (A) (A) (A) (A) (A) (A) (A) (A)
                 (A) (A) (A) (A) (A) (A) (A) (A) (A) (A)
       Virtual   (A) (A) (A) (A) (A) (A) (A) (A) (A) (A) (A) (A)
                 (A) (A) (A) (A) (A) (A) (A) (A) (A) (A) (A) (A)
                 (A) (A) (A) (A) (A)
 The electronic state is 1-A.
 Alpha  occ. eigenvalues --  -13.98978 -13.96669  -9.90387  -9.89755  -9.89494
 Alpha  occ. eigenvalues --   -9.88714  -9.87666  -9.87606  -9.86380  -9.83517
 Alpha  occ. eigenvalues --   -9.83176  -9.82631  -9.78416  -9.66551  -0.72537
 Alpha  occ. eigenvalues --   -0.70237  -0.67004  -0.60946  -0.58901  -0.53674
 Alpha  occ. eigenvalues --   -0.49657  -0.46250  -0.41383  -0.39268  -0.34434
 Alpha  occ. eigenvalues --   -0.32026  -0.29881  -0.28429  -0.24853  -0.21935
 Alpha  occ. eigenvalues --   -0.20718  -0.19911  -0.18950  -0.16819  -0.16764
 Alpha  occ. eigenvalues --   -0.15161  -0.13703  -0.13163  -0.13096  -0.11031
 Alpha  occ. eigenvalues --   -0.10967  -0.08872  -0.05592  -0.02812   0.02619
 Alpha  occ. eigenvalues --    0.11395
 Alpha virt. eigenvalues --    0.15746   0.22795   0.25857   0.26714   0.28004
 Alpha virt. eigenvalues --    0.28273   0.35388   0.37276   0.43190   0.45405
 Alpha virt. eigenvalues --    0.46392   0.50754   0.53313   0.55921   0.59133
 Alpha virt. eigenvalues --    0.59437   0.61919   0.62155   0.67397   0.69818
 Alpha virt. eigenvalues --    0.70611   0.76562   0.78631   0.82908   0.84816
 Alpha virt. eigenvalues --    0.92193   0.94052   1.06097   1.07879
          Condensed to atoms (all electrons):
               1          2          3          4          5          6
     1  N    6.596828   0.656904  -0.010029  -0.000259  -0.000001   0.000000
     2  C    0.656904   4.923405   0.405158  -0.029498   0.000897   0.000014
     3  C   -0.010029   0.405158   4.785645   0.497406  -0.028824  -0.009879
     4  C   -0.000259  -0.029498   0.497406   4.842333   0.488623  -0.029016
     5  C   -0.000001   0.000897  -0.028824   0.488623   4.823892   0.504260
     6  C    0.000000   0.000014  -0.009879  -0.029016   0.504260   4.786057
     7  C   -0.000003   0.001005  -0.032634  -0.007110  -0.027644   0.448771
     8  C    0.000117  -0.032224   0.458841  -0.025598  -0.007972  -0.022217
     9  C   -0.001120   0.007898  -0.039388   0.000803   0.000018   0.000543
    10  C    0.000003  -0.000033   0.001512  -0.000016   0.000001   0.000040
    11  C    0.000000   0.000002   0.000015   0.000001  -0.000007   0.000795
    12  C    0.000000  -0.000006   0.000870   0.000035   0.000664  -0.028031
    13  N    0.000000   0.000000   0.000000  -0.000001  -0.000121  -0.010717
    14  C    0.000000   0.000000   0.000009   0.000917  -0.031482   0.417427
    15  H    0.000074  -0.003141  -0.024305   0.387700  -0.024814   0.001298
    16  H    0.000000  -0.000017   0.001337  -0.024746   0.387093  -0.025294
    17  H    0.000000  -0.000006  -0.000016   0.000000   0.000000   0.000001
    18  H    0.000000   0.000000   0.000001   0.000000   0.000000  -0.000016
    19  H    0.000000   0.000000  -0.000020   0.000000   0.000012  -0.003372
               7          8          9         10         11         12
     1  N   -0.000003   0.000117  -0.001120   0.000003   0.000000   0.000000
     2  C    0.001005  -0.032224   0.007898  -0.000033   0.000002  -0.000006
     3  C   -0.032634   0.458841  -0.039388   0.001512   0.000015   0.000870
     4  C   -0.007110  -0.025598   0.000803  -0.000016   0.000001   0.000035
     5  C   -0.027644  -0.007972   0.000018   0.000001  -0.000007   0.000664
     6  C    0.448771  -0.022217   0.000543   0.000040   0.000795  -0.028031
     7  C    4.826527   0.433651  -0.016845  -0.011860  -0.029217   0.481967
     8  C    0.433651   4.910370   0.391110  -0.030861  -0.014178  -0.030976
     9  C   -0.016845   0.391110   5.471514   0.450295  -0.018449  -0.005983
    10  C   -0.011860  -0.030861   0.450295   4.937719   0.472679  -0.029478
    11  C   -0.029217  -0.014178  -0.018449   0.472679   4.851932   0.512425
    12  C    0.481967  -0.030976  -0.005983  -0.029478   0.512425   4.869767
    13  N   -0.000025  -0.000001   0.000000   0.000000   0.000000  -0.000096
    14  C   -0.026051   0.000686  -0.000003   0.000000   0.000014  -0.003786
    15  H    0.000008   0.001152  -0.000018   0.000000   0.000000   0.000001
    16  H    0.001208   0.000025   0.000000   0.000000   0.000000  -0.000016
    17  H    0.000007   0.002307  -0.031902   0.380113  -0.035206   0.001443
    18  H    0.001493   0.000104   0.001092  -0.023926   0.380129  -0.028421
    19  H   -0.025585   0.001183  -0.000003   0.001233  -0.024581   0.387152
              13         14         15         16         17         18
     1  N    0.000000   0.000000   0.000074   0.000000   0.000000   0.000000
     2  C    0.000000   0.000000  -0.003141  -0.000017  -0.000006   0.000000
     3  C    0.000000   0.000009  -0.024305   0.001337  -0.000016   0.000001
     4  C   -0.000001   0.000917   0.387700  -0.024746   0.000000   0.000000
     5  C   -0.000121  -0.031482  -0.024814   0.387093   0.000000   0.000000
     6  C   -0.010717   0.417427   0.001298  -0.025294   0.000001  -0.000016
     7  C   -0.000025  -0.026051   0.000008   0.001208   0.000007   0.001493
     8  C   -0.000001   0.000686   0.001152   0.000025   0.002307   0.000104
     9  C    0.000000  -0.000003  -0.000018   0.000000  -0.031902   0.001092
    10  C    0.000000   0.000000   0.000000   0.000000   0.380113  -0.023926
    11  C    0.000000   0.000014   0.000000   0.000000  -0.035206   0.380129
    12  C   -0.000096  -0.003786   0.000001  -0.000016   0.001443  -0.028421
    13  N    6.593672   0.658711   0.000000   0.000057   0.000000   0.000000
    14  C    0.658711   4.937241  -0.000017  -0.003670   0.000000   0.000000
    15  H    0.000000  -0.000017   0.603441  -0.003449   0.000000   0.000000
    16  H    0.000057  -0.003670  -0.003449   0.604454   0.000000   0.000000
    17  H    0.000000   0.000000   0.000000   0.000000   0.672249  -0.003758
    18  H    0.000000   0.000000   0.000000   0.000000  -0.003758   0.640803
    19  H   -0.000128   0.001351   0.000000  -0.000001  -0.000039  -0.003778
              19
     1  N    0.000000
     2  C    0.000000
     3  C   -0.000020
     4  C    0.000000
     5  C    0.000012
     6  C   -0.003372
     7  C   -0.025585
     8  C    0.001183
     9  C   -0.000003
    10  C    0.001233
    11  C   -0.024581
    12  C    0.387152
    13  N   -0.000128
    14  C    0.001351
    15  H    0.000000
    16  H   -0.000001
    17  H   -0.000039
    18  H   -0.003778
    19  H    0.620602
 Mulliken charges:
               1
     1  N   -0.242515
     2  C    0.069643
     3  C   -0.005699
     4  C   -0.101573
     5  C   -0.084595
     6  C   -0.030664
     7  C   -0.017664
     8  C   -0.035520
     9  C   -0.209561
    10  C   -0.147420
    11  C   -0.096354
    12  C   -0.127531
    13  N   -0.241351
    14  C    0.048654
    15  H    0.062071
    16  H    0.063020
    17  H    0.014806
    18  H    0.036278
    19  H    0.045974
 Sum of Mulliken charges =  -1.00000
 Mulliken charges with hydrogens summed into heavy atoms:
               1
     1  N   -0.242515
     2  C    0.069643
     3  C   -0.005699
     4  C   -0.039501
     5  C   -0.021575
     6  C   -0.030664
     7  C   -0.017664
     8  C   -0.035520
     9  C   -0.209561
    10  C   -0.132614
    11  C   -0.060075
    12  C   -0.081557
    13  N   -0.241351
    14  C    0.048654
 Electronic spatial extent (au):  <R**2>=           2628.9371
 Charge=             -1.0000 electrons
 Dipole moment (field-independent basis, Debye):
    X=             -3.1959    Y=             -2.6774    Z=             -0.0289  Tot=              4.1693
 Quadrupole moment (field-independent basis, Debye-Ang):
   XX=           -126.1621   YY=            -83.4620   ZZ=            -74.1788
   XY=             -5.1865   XZ=             -0.1907   YZ=              0.0305
 Traceless Quadrupole moment (field-independent basis, Debye-Ang):
   XX=            -31.5611   YY=             11.1390   ZZ=             20.4221
   XY=             -5.1865   XZ=             -0.1907   YZ=              0.0305
 Octapole moment (field-independent basis, Debye-Ang**2):
  XXX=            -19.0735  YYY=            -29.3131  ZZZ=             -0.0693  XYY=            -13.7577
  XXY=             28.8579  XXZ=              0.2323  XZZ=              0.4587  YZZ=             -2.5036
  YYZ=             -0.0516  XYZ=              0.0071
 Hexadecapole moment (field-independent basis, Debye-Ang**3):
 XXXX=          -2952.0591 YYYY=          -1332.0250 ZZZZ=            -58.5174 XXXY=            -22.6149
 XXXZ=             -2.6988 YYYX=            -22.1964 YYYZ=              0.7069 ZZZX=              0.1744
 ZZZY=              0.0652 XXYY=           -606.8891 XXZZ=           -332.6803 YYZZ=           -239.1382
 XXYZ=             -0.4936 YYXZ=             -0.3188 ZZXY=             -0.5180
 N-N= 7.031139512564D+02 E-N=-2.728645553682D+03  KE= 5.547092794383D+02
 1\1\GINC-N049\FOpt\RB3LYP\STO-3G\C12H5N2(1-)\R2532\15-Jun-2021\0\\#N B
 3LYP/STO-3G OPT\\1Naph\\-1,1\N,1.0782724421,-0.1398342151,0.0825886972
 \C,2.2769282004,-0.2262153046,0.0767812558\C,3.7487751654,-0.134268724
 8,0.0845141252\C,4.3785167885,1.126079395,0.0708671858\C,5.7934703853,
 1.1918280556,0.0703133914\C,6.5667377138,0.0150374392,0.0823869584\C,5
 .9351350885,-1.2978054462,0.0997507618\C,4.4702215241,-1.3852825829,0.
 0908408802\C,3.6429146733,-2.6116360238,0.0814992144\C,4.5159150536,-3
 .74345557,0.0497528338\C,5.9426425871,-3.7224435276,0.0700041142\C,6.6
 623851796,-2.5239331008,0.0998258174\N,9.2204229226,0.2325156378,0.053
 4157732\C,8.0240724156,0.1325896381,0.0618536346\H,3.7852806747,2.0486
 846564,0.0582077872\H,6.29488234,2.1687607844,0.0550731471\H,4.0728433
 528,-4.755551976,0.0282349307\H,6.5078793238,-4.6690857791,0.073221921
 6\H,7.7586141689,-2.5113433555,0.1164775701\\Version=ES64L-G09RevD.01\
 State=1-A\HF=-562.5078745\RMSD=6.510e-09\RMSF=1.941e-05\Dipole=1.18834
 12,1.1306177,-0.0136938\Quadrupole=-22.8521654,7.6693468,15.1828186,-5
 .8248084,0.205616,-0.0015818\PG=C01 [X(C12H5N2)]\\@


 THE PROMISED LAND ALWAYS LIES ON THE OTHER SIDE OF A WILDERNESS.

                         -- HAVELOCK ELLIS
 Job cpu time:       0 days  0 hours  6 minutes 35.6 seconds.
 File lengths (MBytes):  RWF=      5 Int=      0 D2E=      0 Chk=      2 Scr=      1
 Normal termination of Gaussian 09 at Tue Jun 15 11:20:14 2021.
