 Entering Gaussian System, Link 0=/usr/local/apps//g09/g09
 Input=31.com
 Output=31.out
 Initial command:
 /usr/local/apps//g09/l1.exe "/tmp/bnp.472676.sequoia/Gau-26714.inp" -scrdir="/tmp/bnp.472676.sequoia/"
 Entering Link 1 = /usr/local/apps//g09/l1.exe PID=     26715.
  
 Copyright (c) 1988,1990,1992,1993,1995,1998,2003,2009,2013,
            Gaussian, Inc.  All Rights Reserved.
  
 This is part of the Gaussian(R) 09 program.  It is based on
 the Gaussian(R) 03 system (copyright 2003, Gaussian, Inc.),
 the Gaussian(R) 98 system (copyright 1998, Gaussian, Inc.),
 the Gaussian(R) 94 system (copyright 1995, Gaussian, Inc.),
 the Gaussian 92(TM) system (copyright 1992, Gaussian, Inc.),
 the Gaussian 90(TM) system (copyright 1990, Gaussian, Inc.),
 the Gaussian 88(TM) system (copyright 1988, Gaussian, Inc.),
 the Gaussian 86(TM) system (copyright 1986, Carnegie Mellon
 University), and the Gaussian 82(TM) system (copyright 1983,
 Carnegie Mellon University). Gaussian is a federally registered
 trademark of Gaussian, Inc.
  
 This software contains proprietary and confidential information,
 including trade secrets, belonging to Gaussian, Inc.
  
 This software is provided under written license and may be
 used, copied, transmitted, or stored only in accord with that
 written license.
  
 The following legend is applicable only to US Government
 contracts under FAR:
  
                    RESTRICTED RIGHTS LEGEND
  
 Use, reproduction and disclosure by the US Government is
 subject to restrictions as set forth in subparagraphs (a)
 and (c) of the Commercial Computer Software - Restricted
 Rights clause in FAR 52.227-19.
  
 Gaussian, Inc.
 340 Quinnipiac St., Bldg. 40, Wallingford CT 06492
  
  
 ---------------------------------------------------------------
 Warning -- This program may not be used in any manner that
 competes with the business of Gaussian, Inc. or will provide
 assistance to any competitor of Gaussian, Inc.  The licensee
 of this program is prohibited from giving any competitor of
 Gaussian, Inc. access to this program.  By using this program,
 the user acknowledges that Gaussian, Inc. is engaged in the
 business of creating and licensing software in the field of
 computational chemistry and represents and warrants to the
 licensee that it is not a competitor of Gaussian, Inc. and that
 it will not use this program in any manner prohibited above.
 ---------------------------------------------------------------
  

 Cite this work as:
 Gaussian 09, Revision D.01,
 M. J. Frisch, G. W. Trucks, H. B. Schlegel, G. E. Scuseria, 
 M. A. Robb, J. R. Cheeseman, G. Scalmani, V. Barone, B. Mennucci, 
 G. A. Petersson, H. Nakatsuji, M. Caricato, X. Li, H. P. Hratchian, 
 A. F. Izmaylov, J. Bloino, G. Zheng, J. L. Sonnenberg, M. Hada, 
 M. Ehara, K. Toyota, R. Fukuda, J. Hasegawa, M. Ishida, T. Nakajima, 
 Y. Honda, O. Kitao, H. Nakai, T. Vreven, J. A. Montgomery, Jr., 
 J. E. Peralta, F. Ogliaro, M. Bearpark, J. J. Heyd, E. Brothers, 
 K. N. Kudin, V. N. Staroverov, T. Keith, R. Kobayashi, J. Normand, 
 K. Raghavachari, A. Rendell, J. C. Burant, S. S. Iyengar, J. Tomasi, 
 M. Cossi, N. Rega, J. M. Millam, M. Klene, J. E. Knox, J. B. Cross, 
 V. Bakken, C. Adamo, J. Jaramillo, R. Gomperts, R. E. Stratmann, 
 O. Yazyev, A. J. Austin, R. Cammi, C. Pomelli, J. W. Ochterski, 
 R. L. Martin, K. Morokuma, V. G. Zakrzewski, G. A. Voth, 
 P. Salvador, J. J. Dannenberg, S. Dapprich, A. D. Daniels, 
 O. Farkas, J. B. Foresman, J. V. Ortiz, J. Cioslowski, 
 and D. J. Fox, Gaussian, Inc., Wallingford CT, 2013.
 
 ******************************************
 Gaussian 09:  ES64L-G09RevD.01 24-Apr-2013
                15-Jun-2021 
 ******************************************
 -------------------
 #N B3LYP/STO-3G OPT
 -------------------
 1/14=-1,18=20,19=15,26=3,38=1/1,3;
 2/9=110,12=2,17=6,18=5,40=1/2;
 3/6=3,11=2,16=1,25=1,30=1,71=1,74=-5/1,2,3;
 4//1;
 5/5=2,38=5/2;
 6/7=2,8=2,9=2,10=2,28=1/1;
 7//1,2,3,16;
 1/14=-1,18=20,19=15,26=3/3(2);
 2/9=110/2;
 99//99;
 2/9=110/2;
 3/6=3,11=2,16=1,25=1,30=1,71=1,74=-5/1,2,3;
 4/5=5,16=3,69=1/1;
 5/5=2,38=5/2;
 7//1,2,3,16;
 1/14=-1,18=20,19=15,26=3/3(-5);
 2/9=110/2;
 6/7=2,8=2,9=2,10=2,19=2,28=1/1;
 99/9=1/99;
 -----
 1Naph
 -----
 Symbolic Z-matrix:
 Charge = -1 Multiplicity = 1
 N                     2.16255   2.99691   1.57062 
 C                     3.23082   2.6008    1.35225 
 C                     4.55244   2.10806   1.07998 
 C                     5.63918   2.92499   1.42064 
 C                     6.93698   2.50198   1.1691 
 C                     7.163     1.26006   0.5855 
 C                     6.09457   0.41313   0.254 
 C                     4.76111   0.83175   0.49466 
 C                     3.71544  -0.05748   0.14549 
 C                     3.97975  -1.32058  -0.39159 
 C                     5.29553  -1.72399  -0.60656 
 C                     6.34502  -0.85274  -0.30099 
 N                     5.81247  -4.09868  -1.51141 
 C                     5.5763   -3.03379  -1.1144 
 H                     5.48415   3.89533   1.88778 
 H                     8.19251   0.95805   0.40385 
 H                     2.67207   0.21742   0.3013 
 H                     3.14972  -1.9842   -0.62946 
 H                     7.37093  -1.17297  -0.4827 
 

 GradGradGradGradGradGradGradGradGradGradGradGradGradGradGradGradGradGrad
 Berny optimization.
 Initialization pass.
                           ----------------------------
                           !    Initial Parameters    !
                           ! (Angstroms and Degrees)  !
 --------------------------                            --------------------------
 ! Name  Definition              Value          Derivative Info.                !
 --------------------------------------------------------------------------------
 ! R1    R(1,2)                  1.1601         estimate D2E/DX2                !
 ! R2    R(2,3)                  1.4365         estimate D2E/DX2                !
 ! R3    R(3,4)                  1.4016         estimate D2E/DX2                !
 ! R4    R(3,8)                  1.4195         estimate D2E/DX2                !
 ! R5    R(4,5)                  1.388          estimate D2E/DX2                !
 ! R6    R(4,15)                 1.088          estimate D2E/DX2                !
 ! R7    R(5,6)                  1.3907         estimate D2E/DX2                !
 ! R8    R(6,7)                  1.4031         estimate D2E/DX2                !
 ! R9    R(6,16)                 1.0882         estimate D2E/DX2                !
 ! R10   R(7,8)                  1.4182         estimate D2E/DX2                !
 ! R11   R(7,12)                 1.4047         estimate D2E/DX2                !
 ! R12   R(8,9)                  1.4164         estimate D2E/DX2                !
 ! R13   R(9,10)                 1.3978         estimate D2E/DX2                !
 ! R14   R(9,17)                 1.0902         estimate D2E/DX2                !
 ! R15   R(10,11)                1.3929         estimate D2E/DX2                !
 ! R16   R(10,18)                1.089          estimate D2E/DX2                !
 ! R17   R(11,12)                1.3978         estimate D2E/DX2                !
 ! R18   R(11,14)                1.4326         estimate D2E/DX2                !
 ! R19   R(12,19)                1.09           estimate D2E/DX2                !
 ! R20   R(13,14)                1.1608         estimate D2E/DX2                !
 ! A1    A(2,3,4)              117.8626         estimate D2E/DX2                !
 ! A2    A(2,3,8)              121.4523         estimate D2E/DX2                !
 ! A3    A(4,3,8)              120.6833         estimate D2E/DX2                !
 ! A4    A(3,4,5)              120.2188         estimate D2E/DX2                !
 ! A5    A(3,4,15)             120.9099         estimate D2E/DX2                !
 ! A6    A(5,4,15)             118.8709         estimate D2E/DX2                !
 ! A7    A(4,5,6)              120.0117         estimate D2E/DX2                !
 ! A8    A(5,6,7)              120.9589         estimate D2E/DX2                !
 ! A9    A(5,6,16)             118.1424         estimate D2E/DX2                !
 ! A10   A(7,6,16)             120.8947         estimate D2E/DX2                !
 ! A11   A(6,7,8)              119.8487         estimate D2E/DX2                !
 ! A12   A(6,7,12)             120.1015         estimate D2E/DX2                !
 ! A13   A(8,7,12)             120.0459         estimate D2E/DX2                !
 ! A14   A(3,8,7)              118.2669         estimate D2E/DX2                !
 ! A15   A(3,8,9)              123.8902         estimate D2E/DX2                !
 ! A16   A(7,8,9)              117.8406         estimate D2E/DX2                !
 ! A17   A(8,9,10)             121.4976         estimate D2E/DX2                !
 ! A18   A(8,9,17)             120.8664         estimate D2E/DX2                !
 ! A19   A(10,9,17)            117.6303         estimate D2E/DX2                !
 ! A20   A(9,10,11)            119.9759         estimate D2E/DX2                !
 ! A21   A(9,10,18)            119.372          estimate D2E/DX2                !
 ! A22   A(11,10,18)           120.6496         estimate D2E/DX2                !
 ! A23   A(10,11,12)           119.6682         estimate D2E/DX2                !
 ! A24   A(10,11,14)           120.3071         estimate D2E/DX2                !
 ! A25   A(12,11,14)           120.0143         estimate D2E/DX2                !
 ! A26   A(7,12,11)            120.9441         estimate D2E/DX2                !
 ! A27   A(7,12,19)            119.8968         estimate D2E/DX2                !
 ! A28   A(11,12,19)           119.1509         estimate D2E/DX2                !
 ! A29   L(1,2,3,17,-1)        179.8785         estimate D2E/DX2                !
 ! A30   L(11,14,13,19,-1)     179.5874         estimate D2E/DX2                !
 ! A31   L(1,2,3,17,-2)        179.9666         estimate D2E/DX2                !
 ! A32   L(11,14,13,19,-2)     179.0785         estimate D2E/DX2                !
 ! D1    D(2,3,4,5)           -179.4674         estimate D2E/DX2                !
 ! D2    D(2,3,4,15)             0.7608         estimate D2E/DX2                !
 ! D3    D(8,3,4,5)              1.0144         estimate D2E/DX2                !
 ! D4    D(8,3,4,15)          -178.7574         estimate D2E/DX2                !
 ! D5    D(2,3,8,7)            179.9379         estimate D2E/DX2                !
 ! D6    D(2,3,8,9)             -0.6302         estimate D2E/DX2                !
 ! D7    D(4,3,8,7)             -0.5615         estimate D2E/DX2                !
 ! D8    D(4,3,8,9)            178.8705         estimate D2E/DX2                !
 ! D9    D(3,4,5,6)             -0.4361         estimate D2E/DX2                !
 ! D10   D(15,4,5,6)           179.3404         estimate D2E/DX2                !
 ! D11   D(4,5,6,7)             -0.5897         estimate D2E/DX2                !
 ! D12   D(4,5,6,16)          -179.8707         estimate D2E/DX2                !
 ! D13   D(5,6,7,8)              1.0327         estimate D2E/DX2                !
 ! D14   D(5,6,7,12)          -178.2476         estimate D2E/DX2                !
 ! D15   D(16,6,7,8)          -179.7061         estimate D2E/DX2                !
 ! D16   D(16,6,7,12)            1.0136         estimate D2E/DX2                !
 ! D17   D(6,7,8,3)             -0.4485         estimate D2E/DX2                !
 ! D18   D(6,7,8,9)           -179.9153         estimate D2E/DX2                !
 ! D19   D(12,7,8,3)           178.8322         estimate D2E/DX2                !
 ! D20   D(12,7,8,9)            -0.6346         estimate D2E/DX2                !
 ! D21   D(6,7,12,11)          178.3751         estimate D2E/DX2                !
 ! D22   D(6,7,12,19)           -0.5734         estimate D2E/DX2                !
 ! D23   D(8,7,12,11)           -0.9037         estimate D2E/DX2                !
 ! D24   D(8,7,12,19)         -179.8522         estimate D2E/DX2                !
 ! D25   D(3,8,9,10)          -178.028          estimate D2E/DX2                !
 ! D26   D(3,8,9,17)             1.0826         estimate D2E/DX2                !
 ! D27   D(7,8,9,10)             1.4062         estimate D2E/DX2                !
 ! D28   D(7,8,9,17)          -179.4832         estimate D2E/DX2                !
 ! D29   D(8,9,10,11)           -0.635          estimate D2E/DX2                !
 ! D30   D(8,9,10,18)          178.8011         estimate D2E/DX2                !
 ! D31   D(17,9,10,11)        -179.7733         estimate D2E/DX2                !
 ! D32   D(17,9,10,18)          -0.3372         estimate D2E/DX2                !
 ! D33   D(9,10,11,12)          -0.9328         estimate D2E/DX2                !
 ! D34   D(9,10,11,14)         177.8919         estimate D2E/DX2                !
 ! D35   D(18,10,11,12)        179.6385         estimate D2E/DX2                !
 ! D36   D(18,10,11,14)         -1.5369         estimate D2E/DX2                !
 ! D37   D(10,11,12,7)           1.704          estimate D2E/DX2                !
 ! D38   D(10,11,12,19)       -179.3397         estimate D2E/DX2                !
 ! D39   D(14,11,12,7)        -177.1241         estimate D2E/DX2                !
 ! D40   D(14,11,12,19)          1.8321         estimate D2E/DX2                !
 --------------------------------------------------------------------------------
 Trust Radius=3.00D-01 FncErr=1.00D-07 GrdErr=1.00D-06
 Number of steps in this run=    102 maximum allowed number of steps=    114.
 GradGradGradGradGradGradGradGradGradGradGradGradGradGradGradGradGradGrad

                          Input orientation:                          
 ---------------------------------------------------------------------
 Center     Atomic      Atomic             Coordinates (Angstroms)
 Number     Number       Type             X           Y           Z
 ---------------------------------------------------------------------
      1          7           0        2.162550    2.996910    1.570620
      2          6           0        3.230820    2.600800    1.352250
      3          6           0        4.552440    2.108060    1.079980
      4          6           0        5.639180    2.924990    1.420640
      5          6           0        6.936980    2.501980    1.169100
      6          6           0        7.163000    1.260060    0.585500
      7          6           0        6.094570    0.413130    0.254000
      8          6           0        4.761110    0.831750    0.494660
      9          6           0        3.715440   -0.057480    0.145490
     10          6           0        3.979750   -1.320580   -0.391590
     11          6           0        5.295530   -1.723990   -0.606560
     12          6           0        6.345020   -0.852740   -0.300990
     13          7           0        5.812470   -4.098680   -1.511410
     14          6           0        5.576300   -3.033790   -1.114400
     15          1           0        5.484150    3.895330    1.887780
     16          1           0        8.192510    0.958050    0.403850
     17          1           0        2.672070    0.217420    0.301300
     18          1           0        3.149720   -1.984200   -0.629460
     19          1           0        7.370930   -1.172970   -0.482700
 ---------------------------------------------------------------------
                    Distance matrix (angstroms):
                    1          2          3          4          5
     1  N    0.000000
     2  C    1.160082   0.000000
     3  C    2.596605   1.436525   0.000000
     4  C    3.480607   2.431044   1.401580   0.000000
     5  C    4.816779   3.711998   2.418501   1.387982   0.000000
     6  C    5.384386   4.224634   2.789021   2.406549   1.390697
     7  C    4.885713   3.767375   2.435815   2.806754   2.431123
     8  C    3.549383   2.491342   1.419546   2.451550   2.824703
     9  C    3.711032   2.959321   2.502679   3.771195   4.239921
    10  C    5.078701   4.356500   3.774793   4.905380   5.078674
    11  C    6.069808   5.177236   4.252200   5.083370   4.868896
    12  C    5.984629   4.935421   3.726494   4.211112   3.710219
    13  N    8.553843   7.729715   6.842996   7.613073   7.212376
    14  C    7.431848   6.582875   5.683504   6.475912   6.140893
    15  H    3.455543   2.653318   2.171395   1.088032   2.137438
    16  H    6.471377   5.311917   3.876827   3.379676   2.132061
    17  H    3.097797   2.664057   2.777887   4.169844   4.915460
    18  H    5.534105   4.995596   4.651494   5.873710   6.140356
    19  H    6.980777   5.894819   4.599023   4.838898   4.052408
                    6          7          8          9         10
     6  C    0.000000
     7  C    1.403113   0.000000
     8  C    2.441470   1.418194   0.000000
     9  C    3.716879   2.427655   1.416360   0.000000
    10  C    4.212777   2.809804   2.455298   1.397761   0.000000
    11  C    3.716585   2.438506   2.833743   2.416510   1.392921
    12  C    2.432875   1.404694   2.445268   2.783249   2.412796
    13  N    5.910758   4.853111   5.425755   4.845013   3.511510
    14  C    4.883075   3.744647   4.265678   3.729416   2.450819
    15  H    3.385132   3.894556   3.442251   4.667828   5.887654
    16  H    1.088162   2.172728   3.434924   4.598066   4.855124
    17  H    4.619125   3.428417   2.186064   1.090169   2.134378
    18  H    5.301676   3.898696   3.433628   2.152403   1.089001
    19  H    2.665318   2.165072   3.432972   3.873183   3.395614
                   11         12         13         14         15
    11  C    0.000000
    12  C    1.397812   0.000000
    13  N    2.593286   3.504975   0.000000
    14  C    1.432588   2.451437   1.160769   0.000000
    15  H    6.150940   5.298677   8.692898   7.552104   0.000000
    16  H    4.075139   2.681227   5.907904   5.008435   4.262027
    17  H    3.387599   3.872797   5.637087   4.583571   4.894051
    18  H    2.161651   3.405589   3.512705   2.687954   6.808446
    19  H    2.150872   1.089980   3.470853   2.661277   5.904810
                   16         17         18         19
    16  H    0.000000
    17  H    5.570844   0.000000
    18  H    5.929106   2.437539   0.000000
    19  H    2.449941   4.962572   4.300959   0.000000
 Stoichiometry    C12H5N2(1-)
 Framework group  C1[X(C12H5N2)]
 Deg. of freedom    51
 Full point group                 C1      NOp   1
 Largest Abelian subgroup         C1      NOp   1
 Largest concise Abelian subgroup C1      NOp   1
                         Standard orientation:                         
 ---------------------------------------------------------------------
 Center     Atomic      Atomic             Coordinates (Angstroms)
 Number     Number       Type             X           Y           Z
 ---------------------------------------------------------------------
      1          7           0       -3.517436   -2.238916    0.023437
      2          6           0       -2.854830   -1.286711    0.016520
      3          6           0       -2.031847   -0.109336    0.007064
      4          6           0       -2.671462    1.137257    0.043478
      5          6           0       -1.924087    2.306696    0.025084
      6          6           0       -0.535543    2.244163   -0.020477
      7          6           0        0.131264    1.009720   -0.036103
      8          6           0       -0.615367   -0.195993   -0.027350
      9          6           0        0.101011   -1.417740   -0.041932
     10          6           0        1.498489   -1.445009   -0.035000
     11          6           0        2.217818   -0.252229   -0.026685
     12          6           0        1.535294    0.967485   -0.045097
     13          7           0        4.808618   -0.278961    0.083640
     14          6           0        3.649307   -0.271646    0.025945
     15          1           0       -3.756206    1.207722    0.090155
     16          1           0        0.020262    3.179605   -0.031655
     17          1           0       -0.423311   -2.373536   -0.044511
     18          1           0        2.013970   -2.404246   -0.026837
     19          1           0        2.106733    1.895653   -0.049377
 ---------------------------------------------------------------------
 Rotational constants (GHZ):      1.5182925      0.4679108      0.3578120
 Standard basis: STO-3G (5D, 7F)
 There are    75 symmetry adapted cartesian basis functions of A   symmetry.
 There are    75 symmetry adapted basis functions of A   symmetry.
    75 basis functions,   225 primitive gaussians,    75 cartesian basis functions
    46 alpha electrons       46 beta electrons
       nuclear repulsion energy       706.5430031544 Hartrees.
 NAtoms=   19 NActive=   19 NUniq=   19 SFac= 1.00D+00 NAtFMM=   60 NAOKFM=F Big=F
 Integral buffers will be    131072 words long.
 Raffenetti 2 integral format.
 Two-electron integral symmetry is turned on.
 One-electron integrals computed using PRISM.
 NBasis=    75 RedAO= T EigKep=  1.55D-01  NBF=    75
 NBsUse=    75 1.00D-06 EigRej= -1.00D+00 NBFU=    75
 ExpMin= 1.69D-01 ExpMax= 9.91D+01 ExpMxC= 9.91D+01 IAcc=1 IRadAn=         1 AccDes= 0.00D+00
 Harris functional with IExCor=  402 and IRadAn=       1 diagonalized for initial guess.
 HarFok:  IExCor=  402 AccDes= 0.00D+00 IRadAn=         1 IDoV= 1 UseB2=F ITyADJ=14
 ICtDFT=  3500011 ScaDFX=  1.000000  1.000000  1.000000  1.000000
 FoFCou: FMM=F IPFlag=           0 FMFlag=      100000 FMFlg1=           0
         NFxFlg=           0 DoJE=T BraDBF=F KetDBF=T FulRan=T
         wScrn=  0.000000 ICntrl=     500 IOpCl=  0 I1Cent=   200000004 NGrid=           0
         NMat0=    1 NMatS0=      1 NMatT0=    0 NMatD0=    1 NMtDS0=    0 NMtDT0=    0
 Petite list used in FoFCou.
 Keep R1 ints in memory in canonical form, NReq=4993994.
 Requested convergence on RMS density matrix=1.00D-08 within 128 cycles.
 Requested convergence on MAX density matrix=1.00D-06.
 Requested convergence on             energy=1.00D-06.
 No special actions if energy rises.
 Integral accuracy reduced to 1.0D-05 until final iterations.
 EnCoef did     5 forward-backward iterations
 EnCoef did     5 forward-backward iterations
 EnCoef did   100 forward-backward iterations
 EnCoef did     6 forward-backward iterations
 Initial convergence to 1.0D-05 achieved.  Increase integral accuracy.
 SCF Done:  E(RB3LYP) =  -562.481872755     A.U. after   25 cycles
            NFock= 25  Conv=0.50D-08     -V/T= 2.0129

 **********************************************************************

            Population analysis using the SCF density.

 **********************************************************************

 Orbital symmetries:
       Occupied  (A) (A) (A) (A) (A) (A) (A) (A) (A) (A) (A) (A)
                 (A) (A) (A) (A) (A) (A) (A) (A) (A) (A) (A) (A)
                 (A) (A) (A) (A) (A) (A) (A) (A) (A) (A) (A) (A)
                 (A) (A) (A) (A) (A) (A) (A) (A) (A) (A)
       Virtual   (A) (A) (A) (A) (A) (A) (A) (A) (A) (A) (A) (A)
                 (A) (A) (A) (A) (A) (A) (A) (A) (A) (A) (A) (A)
                 (A) (A) (A) (A) (A)
 The electronic state is 1-A.
 Alpha  occ. eigenvalues --  -13.99690 -13.96404  -9.90589  -9.90359  -9.87713
 Alpha  occ. eigenvalues --   -9.87604  -9.87339  -9.87313  -9.87087  -9.86946
 Alpha  occ. eigenvalues --   -9.86432  -9.82320  -9.80188  -9.66564  -0.74946
 Alpha  occ. eigenvalues --   -0.72295  -0.68968  -0.63336  -0.58826  -0.55978
 Alpha  occ. eigenvalues --   -0.51773  -0.45555  -0.42866  -0.42038  -0.35440
 Alpha  occ. eigenvalues --   -0.33802  -0.29255  -0.27566  -0.26365  -0.23957
 Alpha  occ. eigenvalues --   -0.22527  -0.22187  -0.20210  -0.18988  -0.17405
 Alpha  occ. eigenvalues --   -0.15612  -0.15425  -0.14912  -0.13735  -0.12833
 Alpha  occ. eigenvalues --   -0.11609  -0.10516  -0.08171  -0.03151   0.00915
 Alpha  occ. eigenvalues --    0.13207
 Alpha virt. eigenvalues --    0.16955   0.20542   0.25136   0.26876   0.29704
 Alpha virt. eigenvalues --    0.30974   0.36529   0.39209   0.45055   0.47876
 Alpha virt. eigenvalues --    0.48466   0.52361   0.56206   0.57389   0.58196
 Alpha virt. eigenvalues --    0.61541   0.64014   0.65240   0.70066   0.72808
 Alpha virt. eigenvalues --    0.74506   0.78420   0.80601   0.85951   0.88876
 Alpha virt. eigenvalues --    0.97721   0.98734   1.13922   1.16806
          Condensed to atoms (all electrons):
               1          2          3          4          5          6
     1  N    6.602693   0.683150  -0.011582  -0.000210  -0.000002   0.000000
     2  C    0.683150   4.912622   0.423641  -0.032065   0.001126   0.000040
     3  C   -0.011582   0.423641   4.810223   0.478660  -0.028250  -0.012963
     4  C   -0.000210  -0.032065   0.478660   4.876077   0.469457  -0.029722
     5  C   -0.000002   0.001126  -0.028250   0.469457   5.388139   0.492014
     6  C    0.000000   0.000040  -0.012963  -0.029722   0.492014   4.896058
     7  C   -0.000002   0.000923  -0.030177  -0.011828  -0.027505   0.466387
     8  C   -0.000037  -0.030405   0.477732  -0.030342  -0.011751  -0.031844
     9  C   -0.000093  -0.004566  -0.028724   0.000753   0.000025   0.000976
    10  C    0.000000   0.000018   0.000818  -0.000008   0.000000   0.000047
    11  C    0.000000   0.000000   0.000031   0.000000  -0.000014   0.000964
    12  C    0.000000  -0.000006   0.000988   0.000042   0.001070  -0.033451
    13  N    0.000000   0.000000   0.000000   0.000000   0.000000   0.000000
    14  C    0.000000   0.000000   0.000000   0.000000   0.000000  -0.000008
    15  H    0.000085  -0.003859  -0.032072   0.387630  -0.036156   0.002091
    16  H    0.000000   0.000001  -0.000019   0.002114  -0.036110   0.387374
    17  H   -0.000101   0.001311  -0.003423   0.000017  -0.000001  -0.000020
    18  H    0.000000   0.000000  -0.000017   0.000000   0.000000   0.000001
    19  H    0.000000   0.000000  -0.000019   0.000001   0.000037  -0.004482
               7          8          9         10         11         12
     1  N   -0.000002  -0.000037  -0.000093   0.000000   0.000000   0.000000
     2  C    0.000923  -0.030405  -0.004566   0.000018   0.000000  -0.000006
     3  C   -0.030177   0.477732  -0.028724   0.000818   0.000031   0.000988
     4  C   -0.011828  -0.030342   0.000753  -0.000008   0.000000   0.000042
     5  C   -0.027505  -0.011751   0.000025   0.000000  -0.000014   0.001070
     6  C    0.466387  -0.031844   0.000976   0.000047   0.000964  -0.033451
     7  C    4.796747   0.468187  -0.029352  -0.010397  -0.028895   0.481205
     8  C    0.468187   4.780557   0.479291  -0.027776  -0.009496  -0.028580
     9  C   -0.029352   0.479291   4.830223   0.520567  -0.030928  -0.011871
    10  C   -0.010397  -0.027776   0.520567   4.827890   0.483035  -0.032151
    11  C   -0.028895  -0.009496  -0.030928   0.483035   4.760348   0.501305
    12  C    0.481205  -0.028580  -0.011871  -0.032151   0.501305   4.842814
    13  N   -0.000001   0.000000  -0.000001  -0.000112  -0.011558  -0.000188
    14  C    0.001004   0.000012   0.001043  -0.031932   0.428931  -0.031059
    15  H   -0.000034   0.001184  -0.000019   0.000000   0.000000   0.000002
    16  H   -0.031825   0.001284  -0.000022  -0.000002   0.000012  -0.004098
    17  H    0.001401  -0.024356   0.388921  -0.027512   0.001515   0.000049
    18  H    0.000039   0.001373  -0.025511   0.391253  -0.025825   0.001426
    19  H   -0.025318   0.001369   0.000045   0.001434  -0.027142   0.390648
              13         14         15         16         17         18
     1  N    0.000000   0.000000   0.000085   0.000000  -0.000101   0.000000
     2  C    0.000000   0.000000  -0.003859   0.000001   0.001311   0.000000
     3  C    0.000000   0.000000  -0.032072  -0.000019  -0.003423  -0.000017
     4  C    0.000000   0.000000   0.387630   0.002114   0.000017   0.000000
     5  C    0.000000   0.000000  -0.036156  -0.036110  -0.000001   0.000000
     6  C    0.000000  -0.000008   0.002091   0.387374  -0.000020   0.000001
     7  C   -0.000001   0.001004  -0.000034  -0.031825   0.001401   0.000039
     8  C    0.000000   0.000012   0.001184   0.001284  -0.024356   0.001373
     9  C   -0.000001   0.001043  -0.000019  -0.000022   0.388921  -0.025511
    10  C   -0.000112  -0.031932   0.000000  -0.000002  -0.027512   0.391253
    11  C   -0.011558   0.428931   0.000000   0.000012   0.001515  -0.025825
    12  C   -0.000188  -0.031059   0.000002  -0.004098   0.000049   0.001426
    13  N    6.578902   0.686727   0.000000   0.000000   0.000000   0.000064
    14  C    0.686727   4.895585   0.000000  -0.000001  -0.000021  -0.003752
    15  H    0.000000   0.000000   0.640185  -0.000013  -0.000001   0.000000
    16  H    0.000000  -0.000001  -0.000013   0.650350   0.000001   0.000000
    17  H    0.000000  -0.000021  -0.000001   0.000001   0.599070  -0.004275
    18  H    0.000064  -0.003752   0.000000   0.000000  -0.004275   0.603144
    19  H    0.000067  -0.003874   0.000000   0.001234   0.000002  -0.000040
              19
     1  N    0.000000
     2  C    0.000000
     3  C   -0.000019
     4  C    0.000001
     5  C    0.000037
     6  C   -0.004482
     7  C   -0.025318
     8  C    0.001369
     9  C    0.000045
    10  C    0.001434
    11  C   -0.027142
    12  C    0.390648
    13  N    0.000067
    14  C   -0.003874
    15  H    0.000000
    16  H    0.001234
    17  H    0.000002
    18  H   -0.000040
    19  H    0.599604
 Mulliken charges:
               1
     1  N   -0.273901
     2  C    0.048070
     3  C   -0.044847
     4  C   -0.110576
     5  C   -0.212081
     6  C   -0.133464
     7  C   -0.020558
     8  C   -0.016401
     9  C   -0.090755
    10  C   -0.095173
    11  C   -0.042282
    12  C   -0.078145
    13  N   -0.253901
    14  C    0.057342
    15  H    0.040976
    16  H    0.029720
    17  H    0.067424
    18  H    0.062121
    19  H    0.066433
 Sum of Mulliken charges =  -1.00000
 Mulliken charges with hydrogens summed into heavy atoms:
               1
     1  N   -0.273901
     2  C    0.048070
     3  C   -0.044847
     4  C   -0.069600
     5  C   -0.212081
     6  C   -0.103744
     7  C   -0.020558
     8  C   -0.016401
     9  C   -0.023332
    10  C   -0.033052
    11  C   -0.042282
    12  C   -0.011712
    13  N   -0.253901
    14  C    0.057342
 Electronic spatial extent (au):  <R**2>=           2831.0326
 Charge=             -1.0000 electrons
 Dipole moment (field-independent basis, Debye):
    X=              2.5373    Y=             -1.7585    Z=             -0.1507  Tot=              3.0908
 Quadrupole moment (field-independent basis, Debye-Ang):
   XX=           -129.2126   YY=            -94.5392   ZZ=            -74.0216
   XY=              0.7304   XZ=             -0.4234   YZ=              0.1659
 Traceless Quadrupole moment (field-independent basis, Debye-Ang):
   XX=            -29.9548   YY=              4.7186   ZZ=             25.2362
   XY=              0.7304   XZ=             -0.4234   YZ=              0.1659
 Octapole moment (field-independent basis, Debye-Ang**2):
  XXX=            -82.2162  YYY=            -28.4290  ZZZ=              0.3680  XYY=             68.1525
  XXY=             31.1670  XXZ=             -4.2822  XZZ=              1.0639  YZZ=             -2.4199
  YYZ=              0.2699  XYZ=             -0.2874
 Hexadecapole moment (field-independent basis, Debye-Ang**3):
 XXXX=          -3777.9471 YYYY=          -1069.2522 ZZZZ=            -58.8338 XXXY=            -65.5297
 XXXZ=            -15.3997 YYYX=             20.8485 YYYZ=              1.5126 ZZZX=              0.8979
 ZZZY=             -0.1064 XXYY=           -767.7302 XXZZ=           -444.2282 YYZZ=           -165.1973
 XXYZ=              1.9693 YYXZ=              0.5528 ZZXY=              6.5355
 N-N= 7.065430031544D+02 E-N=-2.735002906006D+03  KE= 5.553301940012D+02
 Calling FoFJK, ICntrl=      2127 FMM=F ISym2X=0 I1Cent= 0 IOpClX= 0 NMat=1 NMatS=1 NMatT=0.
 ***** Axes restored to original set *****
 -------------------------------------------------------------------
 Center     Atomic                   Forces (Hartrees/Bohr)
 Number     Number              X              Y              Z
 -------------------------------------------------------------------
      1        7          -0.098498695    0.039326284    0.023371179
      2        6           0.075864792   -0.039223730   -0.026989829
      3        6          -0.016627941    0.024839268   -0.000025117
      4        6          -0.000215664   -0.014958014   -0.003959253
      5        6           0.063714321    0.027935084    0.000059952
      6        6          -0.002765617    0.032734442    0.019099399
      7        6           0.022449518   -0.021374620    0.002967680
      8        6          -0.019017799   -0.002973689    0.001058731
      9        6          -0.011519961   -0.022315620   -0.009273434
     10        6          -0.036025796    0.023405936    0.012647049
     11        6           0.024546858   -0.003196260   -0.005563504
     12        6          -0.000545594   -0.019758968   -0.005798250
     13        7           0.020809489   -0.094727012   -0.034974118
     14        6          -0.016348110    0.073647712    0.024091340
     15        1          -0.011149383    0.006114023    0.014416866
     16        1           0.007463498   -0.009288914   -0.013586535
     17        1          -0.004805727    0.005601202    0.002733381
     18        1          -0.003762633   -0.004850066   -0.001913106
     19        1           0.006434444   -0.000937056    0.001637569
 -------------------------------------------------------------------
 Cartesian Forces:  Max     0.098498695 RMS     0.029650333

 GradGradGradGradGradGradGradGradGradGradGradGradGradGradGradGradGradGrad
 Berny optimization.
 FormGI is forming the generalized inverse of G from B-inverse, IUseBI=4.
 Internal  Forces:  Max     0.108530359 RMS     0.020391990
 Search for a local minimum.
 Step number   1 out of a maximum of  102
 All quantities printed in internal units (Hartrees-Bohrs-Radians)
 Mixed Optimization -- RFO/linear search
 Second derivative matrix not updated -- first step.
 ITU=  0
     Eigenvalues ---    0.01606   0.01606   0.01879   0.01889   0.01939
     Eigenvalues ---    0.01960   0.01996   0.02030   0.02043   0.02071
     Eigenvalues ---    0.02097   0.02123   0.02137   0.02142   0.02158
     Eigenvalues ---    0.02188   0.04856   0.04856   0.15997   0.15998
     Eigenvalues ---    0.15999   0.15999   0.16000   0.22413   0.23235
     Eigenvalues ---    0.23377   0.23656   0.24624   0.24995   0.24997
     Eigenvalues ---    0.24999   0.34793   0.34815   0.34928   0.35026
     Eigenvalues ---    0.35041   0.38448   0.40066   0.40392   0.40620
     Eigenvalues ---    0.40874   0.43053   0.43643   0.45104   0.45239
     Eigenvalues ---    0.45482   0.46096   0.46389   0.47189   1.27292
     Eigenvalues ---    1.27740
 RFO step:  Lambda=-5.89543768D-02 EMin= 1.60560456D-02
 Linear search not attempted -- first point.
 Maximum step size (   0.300) exceeded in Quadratic search.
    -- Step size scaled by   0.874
 Iteration  1 RMS(Cart)=  0.05443874 RMS(Int)=  0.00164337
 Iteration  2 RMS(Cart)=  0.00225904 RMS(Int)=  0.00056548
 Iteration  3 RMS(Cart)=  0.00000333 RMS(Int)=  0.00056548
 Iteration  4 RMS(Cart)=  0.00000000 RMS(Int)=  0.00056548
 Variable       Old X    -DE/DX   Delta X   Delta X   Delta X     New X
                                 (Linear)    (Quad)   (Total)
    R1        2.19224   0.10853   0.00000   0.07096   0.07096   2.26320
    R2        2.71464   0.02017   0.00000   0.03835   0.03835   2.75299
    R3        2.64860   0.02938   0.00000   0.04962   0.04943   2.69803
    R4        2.68255   0.02180   0.00000   0.03898   0.03872   2.72127
    R5        2.62291   0.04450   0.00000   0.07245   0.07253   2.69544
    R6        2.05608   0.01323   0.00000   0.02824   0.02824   2.08432
    R7        2.62804   0.01839   0.00000   0.03057   0.03085   2.65888
    R8        2.65150   0.04411   0.00000   0.07603   0.07622   2.72771
    R9        2.05633   0.01191   0.00000   0.02542   0.02542   2.08175
   R10        2.68000   0.03612   0.00000   0.06519   0.06516   2.74516
   R11        2.65449   0.03107   0.00000   0.05460   0.05472   2.70921
   R12        2.67653   0.02070   0.00000   0.03594   0.03586   2.71239
   R13        2.64139  -0.00422   0.00000  -0.00818  -0.00830   2.63308
   R14        2.06012   0.00640   0.00000   0.01375   0.01375   2.07387
   R15        2.63224   0.04378   0.00000   0.07247   0.07242   2.70466
   R16        2.05791   0.00624   0.00000   0.01336   0.01336   2.07127
   R17        2.64148   0.01631   0.00000   0.02843   0.02852   2.67000
   R18        2.70720   0.02400   0.00000   0.04509   0.04509   2.75229
   R19        2.05976   0.00606   0.00000   0.01301   0.01301   2.07277
   R20        2.19353   0.10310   0.00000   0.06764   0.06764   2.26117
    A1        2.05709   0.01191   0.00000   0.03536   0.03564   2.09273
    A2        2.11974  -0.00772   0.00000  -0.02017  -0.01997   2.09977
    A3        2.10632  -0.00421   0.00000  -0.01547  -0.01656   2.08976
    A4        2.09821   0.02338   0.00000   0.06970   0.06901   2.16722
    A5        2.11028  -0.02171   0.00000  -0.07484  -0.07449   2.03579
    A6        2.07469  -0.00167   0.00000   0.00513   0.00548   2.08017
    A7        2.09460  -0.03086   0.00000  -0.09007  -0.09008   2.00451
    A8        2.11113   0.01865   0.00000   0.05756   0.05747   2.16860
    A9        2.06197   0.00179   0.00000   0.01571   0.01550   2.07747
   A10        2.11001  -0.02041   0.00000  -0.07291  -0.07308   2.03693
   A11        2.09175  -0.00337   0.00000  -0.01125  -0.01182   2.07994
   A12        2.09617   0.01421   0.00000   0.04012   0.03978   2.13595
   A13        2.09520  -0.01079   0.00000  -0.02834  -0.02842   2.06677
   A14        2.06415  -0.00372   0.00000  -0.01195  -0.01265   2.05149
   A15        2.16229  -0.00260   0.00000  -0.00511  -0.00470   2.15759
   A16        2.05671   0.00632   0.00000   0.01711   0.01738   2.07409
   A17        2.12053   0.00179   0.00000   0.00125   0.00097   2.12150
   A18        2.10952  -0.00561   0.00000  -0.01938  -0.01927   2.09025
   A19        2.05304   0.00383   0.00000   0.01828   0.01839   2.07143
   A20        2.09398   0.00226   0.00000   0.00432   0.00408   2.09806
   A21        2.08344   0.00047   0.00000   0.00425   0.00434   2.08778
   A22        2.10573  -0.00272   0.00000  -0.00848  -0.00838   2.09735
   A23        2.08860  -0.00166   0.00000  -0.00373  -0.00374   2.08487
   A24        2.09975   0.00042   0.00000   0.00073   0.00073   2.10048
   A25        2.09465   0.00125   0.00000   0.00308   0.00308   2.09772
   A26        2.11087   0.00214   0.00000   0.00998   0.01012   2.12099
   A27        2.09259  -0.00303   0.00000  -0.01277  -0.01289   2.07971
   A28        2.07958   0.00092   0.00000   0.00302   0.00290   2.08248
   A29        3.13947   0.00779   0.00000   0.09079   0.09079   3.23026
   A30        3.13439   0.00039   0.00000   0.00320   0.00320   3.13759
   A31        3.14101   0.00388   0.00000   0.04517   0.04517   3.18618
   A32        3.12551  -0.00056   0.00000  -0.00455  -0.00455   3.12096
    D1       -3.13230   0.00413   0.00000   0.04431   0.04565  -3.08665
    D2        0.01328   0.00416   0.00000   0.04507   0.04521   0.05849
    D3        0.01770   0.00747   0.00000   0.08157   0.08324   0.10095
    D4       -3.11991   0.00750   0.00000   0.08233   0.08281  -3.03710
    D5        3.14051   0.00067   0.00000   0.00717   0.00823  -3.13445
    D6       -0.01100   0.00126   0.00000   0.01310   0.01353   0.00253
    D7       -0.00980  -0.00269   0.00000  -0.03117  -0.02925  -0.03905
    D8        3.12188  -0.00210   0.00000  -0.02525  -0.02395   3.09793
    D9       -0.00761  -0.00595   0.00000  -0.06440  -0.06500  -0.07262
   D10        3.13008  -0.00602   0.00000  -0.06533  -0.06473   3.06535
   D11       -0.01029  -0.00019   0.00000  -0.00241  -0.00367  -0.01397
   D12       -3.13934  -0.00310   0.00000  -0.03549  -0.03758   3.10627
   D13        0.01802   0.00475   0.00000   0.05184   0.05171   0.06973
   D14       -3.11101   0.00050   0.00000   0.00392   0.00366  -3.10734
   D15       -3.13646   0.00792   0.00000   0.08652   0.08551  -3.05096
   D16        0.01769   0.00367   0.00000   0.03859   0.03747   0.05516
   D17       -0.00783  -0.00300   0.00000  -0.03364  -0.03251  -0.04034
   D18       -3.14011  -0.00350   0.00000  -0.03909  -0.03743   3.10564
   D19        3.12121   0.00143   0.00000   0.01475   0.01411   3.13532
   D20       -0.01108   0.00092   0.00000   0.00931   0.00920  -0.00188
   D21        3.11323   0.00486   0.00000   0.05477   0.05469  -3.11526
   D22       -0.01001   0.00347   0.00000   0.03932   0.03923   0.02923
   D23       -0.01577   0.00055   0.00000   0.00663   0.00688  -0.00889
   D24       -3.13901  -0.00084   0.00000  -0.00883  -0.00858   3.13559
   D25       -3.10717  -0.00179   0.00000  -0.01926  -0.01879  -3.12596
   D26        0.01889  -0.00072   0.00000  -0.00801  -0.00773   0.01117
   D27        0.02454  -0.00125   0.00000  -0.01352  -0.01359   0.01095
   D28       -3.13257  -0.00018   0.00000  -0.00227  -0.00253  -3.13510
   D29       -0.01108   0.00016   0.00000   0.00177   0.00183  -0.00925
   D30        3.12067   0.00112   0.00000   0.01223   0.01229   3.13295
   D31       -3.13764  -0.00080   0.00000  -0.00881  -0.00879   3.13676
   D32       -0.00589   0.00015   0.00000   0.00165   0.00166  -0.00422
   D33       -0.01628   0.00137   0.00000   0.01467   0.01460  -0.00168
   D34        3.10480   0.00172   0.00000   0.01884   0.01879   3.12359
   D35        3.13528   0.00038   0.00000   0.00400   0.00402   3.13930
   D36       -0.02682   0.00073   0.00000   0.00817   0.00821  -0.01861
   D37        0.02974  -0.00177   0.00000  -0.01888  -0.01893   0.01081
   D38       -3.13007  -0.00043   0.00000  -0.00370  -0.00361  -3.13368
   D39       -3.09140  -0.00210   0.00000  -0.02301  -0.02308  -3.11448
   D40        0.03198  -0.00076   0.00000  -0.00783  -0.00776   0.02422
         Item               Value     Threshold  Converged?
 Maximum Force            0.108530     0.000450     NO 
 RMS     Force            0.020392     0.000300     NO 
 Maximum Displacement     0.163327     0.001800     NO 
 RMS     Displacement     0.053927     0.001200     NO 
 Predicted change in Energy=-3.313060D-02
 GradGradGradGradGradGradGradGradGradGradGradGradGradGradGradGradGradGrad

                          Input orientation:                          
 ---------------------------------------------------------------------
 Center     Atomic      Atomic             Coordinates (Angstroms)
 Number     Number       Type             X           Y           Z
 ---------------------------------------------------------------------
      1          7           0        2.119936    3.070492    1.607325
      2          6           0        3.186303    2.609438    1.316443
      3          6           0        4.539540    2.131720    1.065732
      4          6           0        5.658781    2.936384    1.437552
      5          6           0        7.017368    2.588409    1.177421
      6          6           0        7.201835    1.322045    0.592614
      7          6           0        6.129677    0.407482    0.280229
      8          6           0        4.755736    0.826783    0.496437
      9          6           0        3.693845   -0.071331    0.141527
     10          6           0        3.953011   -1.332919   -0.390170
     11          6           0        5.301799   -1.760063   -0.606465
     12          6           0        6.366737   -0.891412   -0.278373
     13          7           0        5.807866   -4.182777   -1.561609
     14          6           0        5.576832   -3.086621   -1.141107
     15          1           0        5.436384    3.881397    1.961048
     16          1           0        8.221548    0.997293    0.331309
     17          1           0        2.650137    0.232326    0.292691
     18          1           0        3.117899   -1.996458   -0.642504
     19          1           0        7.399306   -1.218138   -0.452040
 ---------------------------------------------------------------------
                    Distance matrix (angstroms):
                    1          2          3          4          5
     1  N    0.000000
     2  C    1.197632   0.000000
     3  C    2.651245   1.456818   0.000000
     4  C    3.545452   2.496939   1.427738   0.000000
     5  C    4.939845   3.833644   2.522038   1.426364   0.000000
     6  C    5.469223   4.278528   2.822628   2.387682   1.407020
     7  C    4.993078   3.819135   2.473570   2.820724   2.519800
     8  C    3.635347   2.512646   1.440034   2.480243   2.946531
     9  C    3.807468   2.970615   2.534323   3.819294   4.380994
    10  C    5.171091   4.363776   3.803602   4.947440   5.217704
    11  C    6.193495   5.221631   4.303865   5.134399   5.003462
    12  C    6.106379   4.991447   3.779497   4.254130   3.827768
    13  N    8.732289   7.828790   6.955892   7.726554   7.403657
    14  C    7.577206   6.648253   5.759965   6.552312   6.297355
    15  H    3.432421   2.663880   2.160391   1.102976   2.187555
    16  H    6.569326   5.378028   3.922179   3.398768   2.167396
    17  H    3.172470   2.643143   2.788392   4.204114   5.040494
    18  H    5.633085   5.005640   4.688389   5.925846   6.288004
    19  H    7.106692   5.960474   4.658695   4.884674   4.158223
                    6          7          8          9         10
     6  C    0.000000
     7  C    1.443444   0.000000
     8  C    2.497585   1.452677   0.000000
     9  C    3.801443   2.486318   1.435334   0.000000
    10  C    4.309240   2.866409   2.468755   1.393367   0.000000
    11  C    3.814094   2.483920   2.864672   2.448841   1.431245
    12  C    2.520991   1.433652   2.479485   2.827225   2.456319
    13  N    6.073457   4.956451   5.517084   4.926838   3.596449
    14  C    5.008268   3.812426   4.320935   3.779254   2.505229
    15  H    3.397015   3.920955   3.455291   4.687341   5.909121
    16  H    1.101617   2.174031   3.473930   4.655971   4.916383
    17  H    4.689924   3.483967   2.197371   1.097444   2.147969
    18  H    5.405230   3.962470   3.456933   2.156973   1.096070
    19  H    2.753693   2.188793   3.474157   3.924019   3.448760
                   11         12         13         14         15
    11  C    0.000000
    12  C    1.412902   0.000000
    13  N    2.652913   3.576606   0.000000
    14  C    1.456448   2.487409   1.196560   0.000000
    15  H    6.199702   5.353528   8.807837   7.628654   0.000000
    16  H    4.123999   2.716475   6.020142   5.083392   4.327960
    17  H    3.436481   3.924540   5.736097   4.651529   4.884906
    18  H    2.196952   3.450894   3.586177   2.735583   6.833962
    19  H    2.171881   1.096862   3.543008   2.699528   5.973383
                   16         17         18         19
    16  H    0.000000
    17  H    5.623814   0.000000
    18  H    5.996506   2.461883   0.000000
    19  H    2.489548   5.021262   4.355744   0.000000
 Stoichiometry    C12H5N2(1-)
 Framework group  C1[X(C12H5N2)]
 Deg. of freedom    51
 Full point group                 C1      NOp   1
 Largest Abelian subgroup         C1      NOp   1
 Largest concise Abelian subgroup C1      NOp   1
                         Standard orientation:                         
 ---------------------------------------------------------------------
 Center     Atomic      Atomic             Coordinates (Angstroms)
 Number     Number       Type             X           Y           Z
 ---------------------------------------------------------------------
      1          7           0       -3.596356   -2.281691    0.034477
      2          6           0       -2.851938   -1.344857   -0.015595
      3          6           0       -2.049629   -0.128878   -0.011705
      4          6           0       -2.689132    1.145632    0.059682
      5          6           0       -1.998778    2.392593    0.004780
      6          6           0       -0.596054    2.290576   -0.035997
      7          6           0        0.128893    1.042691   -0.008301
      8          6           0       -0.611749   -0.206921   -0.022075
      9          6           0        0.116945   -1.443402   -0.039549
     10          6           0        1.510048   -1.468926   -0.030527
     11          6           0        2.252654   -0.245508   -0.014714
     12          6           0        1.561453    0.986772   -0.010403
     13          7           0        4.904141   -0.283296    0.063622
     14          6           0        3.708563   -0.268755    0.017371
     15          1           0       -3.786850    1.142869    0.167220
     16          1           0        0.004831    3.210634   -0.113393
     17          1           0       -0.427256   -2.396266   -0.056292
     18          1           0        2.034294   -2.431477   -0.036190
     19          1           0        2.132835    1.923046   -0.005847
 ---------------------------------------------------------------------
 Rotational constants (GHZ):      1.4504412      0.4528725      0.3452230
 Standard basis: STO-3G (5D, 7F)
 There are    75 symmetry adapted cartesian basis functions of A   symmetry.
 There are    75 symmetry adapted basis functions of A   symmetry.
    75 basis functions,   225 primitive gaussians,    75 cartesian basis functions
    46 alpha electrons       46 beta electrons
       nuclear repulsion energy       693.9770308841 Hartrees.
 NAtoms=   19 NActive=   19 NUniq=   19 SFac= 1.00D+00 NAtFMM=   60 NAOKFM=F Big=F
 Integral buffers will be    131072 words long.
 Raffenetti 2 integral format.
 Two-electron integral symmetry is turned on.
 One-electron integrals computed using PRISM.
 NBasis=    75 RedAO= T EigKep=  1.74D-01  NBF=    75
 NBsUse=    75 1.00D-06 EigRej= -1.00D+00 NBFU=    75
 Initial guess from the checkpoint file:  "/tmp/bnp.472676.sequoia/Gau-26715.chk"
 B after Tr=     0.000000    0.000000    0.000000
         Rot=    0.999999   -0.000072   -0.000036   -0.001712 Ang=  -0.20 deg.
 ExpMin= 1.69D-01 ExpMax= 9.91D+01 ExpMxC= 9.91D+01 IAcc=1 IRadAn=         1 AccDes= 0.00D+00
 Harris functional with IExCor=  402 and IRadAn=       1 diagonalized for initial guess.
 HarFok:  IExCor=  402 AccDes= 0.00D+00 IRadAn=         1 IDoV= 1 UseB2=F ITyADJ=14
 ICtDFT=  3500011 ScaDFX=  1.000000  1.000000  1.000000  1.000000
 FoFCou: FMM=F IPFlag=           0 FMFlag=      100000 FMFlg1=           0
         NFxFlg=           0 DoJE=T BraDBF=F KetDBF=T FulRan=T
         wScrn=  0.000000 ICntrl=     500 IOpCl=  0 I1Cent=   200000004 NGrid=           0
         NMat0=    1 NMatS0=      1 NMatT0=    0 NMatD0=    1 NMtDS0=    0 NMtDT0=    0
 Petite list used in FoFCou.
 Keep R1 ints in memory in canonical form, NReq=4993994.
 Requested convergence on RMS density matrix=1.00D-08 within 128 cycles.
 Requested convergence on MAX density matrix=1.00D-06.
 Requested convergence on             energy=1.00D-06.
 No special actions if energy rises.
 Integral accuracy reduced to 1.0D-05 until final iterations.
 Initial convergence to 1.0D-05 achieved.  Increase integral accuracy.
 SCF Done:  E(RB3LYP) =  -562.511941581     A.U. after   16 cycles
            NFock= 16  Conv=0.82D-08     -V/T= 2.0140
 Calling FoFJK, ICntrl=      2127 FMM=F ISym2X=0 I1Cent= 0 IOpClX= 0 NMat=1 NMatS=1 NMatT=0.
 ***** Axes restored to original set *****
 -------------------------------------------------------------------
 Center     Atomic                   Forces (Hartrees/Bohr)
 Number     Number              X              Y              Z
 -------------------------------------------------------------------
      1        7          -0.009397569    0.003100686    0.001532318
      2        6           0.007522097   -0.002402808   -0.002750129
      3        6          -0.001535056    0.011964735   -0.000781620
      4        6          -0.006916305   -0.012268465   -0.002618016
      5        6           0.020287067    0.010273678   -0.001639207
      6        6          -0.009204600    0.008034678    0.005152370
      7        6           0.007942442   -0.008638673    0.002639259
      8        6          -0.001436516   -0.002373211   -0.000997094
      9        6           0.000241193   -0.009109045   -0.004156231
     10        6          -0.008794828    0.008610002    0.004555404
     11        6           0.009977018    0.002897820   -0.000323685
     12        6          -0.007479500   -0.003933828    0.000945709
     13        7           0.001619869   -0.007904721   -0.003108144
     14        6          -0.001696407    0.005948270    0.000793828
     15        1          -0.003421463   -0.001012844    0.005061333
     16        1          -0.000072817   -0.003313617   -0.006041097
     17        1           0.000011306    0.002520545    0.001337210
     18        1           0.000609448   -0.001981469   -0.000777879
     19        1           0.001744620   -0.000411733    0.001175672
 -------------------------------------------------------------------
 Cartesian Forces:  Max     0.020287067 RMS     0.005983220

 GradGradGradGradGradGradGradGradGradGradGradGradGradGradGradGradGradGrad
 Berny optimization.
 Using GEDIIS/GDIIS optimizer.
 FormGI is forming the generalized inverse of G from B-inverse, IUseBI=4.
 Internal  Forces:  Max     0.012776081 RMS     0.003485630
 Search for a local minimum.
 Step number   2 out of a maximum of  102
 All quantities printed in internal units (Hartrees-Bohrs-Radians)
 Mixed Optimization -- RFO/linear search
 Update second derivatives using D2CorX and points    1    2
 DE= -3.01D-02 DEPred=-3.31D-02 R= 9.08D-01
 TightC=F SS=  1.41D+00  RLast= 3.74D-01 DXNew= 5.0454D-01 1.1230D+00
 Trust test= 9.08D-01 RLast= 3.74D-01 DXMaxT set to 5.05D-01
 ITU=  1  0
 Use linear search instead of GDIIS.
     Eigenvalues ---    0.01606   0.01651   0.01879   0.01891   0.01946
     Eigenvalues ---    0.01967   0.01999   0.02043   0.02069   0.02076
     Eigenvalues ---    0.02112   0.02134   0.02141   0.02157   0.02166
     Eigenvalues ---    0.02248   0.04856   0.04857   0.15737   0.15999
     Eigenvalues ---    0.16000   0.16000   0.16038   0.22136   0.22406
     Eigenvalues ---    0.23377   0.23631   0.24597   0.24971   0.24990
     Eigenvalues ---    0.25022   0.34799   0.34807   0.34933   0.35023
     Eigenvalues ---    0.35056   0.38737   0.40146   0.40469   0.40708
     Eigenvalues ---    0.41052   0.43075   0.43603   0.45005   0.45188
     Eigenvalues ---    0.45469   0.46267   0.46975   0.49538   1.27505
     Eigenvalues ---    1.30209
 RFO step:  Lambda=-7.23022557D-03 EMin= 1.60560261D-02
 Quartic linear search produced a step of  0.26463.
 Iteration  1 RMS(Cart)=  0.07644583 RMS(Int)=  0.00500198
 Iteration  2 RMS(Cart)=  0.00577731 RMS(Int)=  0.00108715
 Iteration  3 RMS(Cart)=  0.00001577 RMS(Int)=  0.00108711
 Iteration  4 RMS(Cart)=  0.00000001 RMS(Int)=  0.00108711
 Variable       Old X    -DE/DX   Delta X   Delta X   Delta X     New X
                                 (Linear)    (Quad)   (Total)
    R1        2.26320   0.00993   0.01878  -0.00926   0.00952   2.27272
    R2        2.75299   0.00176   0.01015  -0.00525   0.00490   2.75788
    R3        2.69803  -0.00171   0.01308  -0.01850  -0.00591   2.69212
    R4        2.72127   0.00392   0.01025   0.00024   0.01011   2.73138
    R5        2.69544   0.01192   0.01919   0.01099   0.03020   2.72564
    R6        2.08432   0.00222   0.00747  -0.00013   0.00734   2.09166
    R7        2.65888   0.00349   0.00816   0.00096   0.00954   2.66843
    R8        2.72771   0.00395   0.02017  -0.01005   0.01047   2.73819
    R9        2.08175   0.00234   0.00673   0.00108   0.00780   2.08956
   R10        2.74516   0.00236   0.01724  -0.01168   0.00560   2.75076
   R11        2.70921   0.00066   0.01448  -0.01345   0.00114   2.71035
   R12        2.71239   0.00201   0.00949  -0.00430   0.00504   2.71743
   R13        2.63308  -0.00552  -0.00220  -0.01238  -0.01468   2.61840
   R14        2.07387   0.00087   0.00364  -0.00079   0.00284   2.07671
   R15        2.70466   0.00721   0.01916  -0.00072   0.01848   2.72315
   R16        2.07127   0.00091   0.00353  -0.00053   0.00300   2.07427
   R17        2.67000  -0.00370   0.00755  -0.01765  -0.00996   2.66004
   R18        2.75229   0.00262   0.01193  -0.00460   0.00733   2.75962
   R19        2.07277   0.00158   0.00344   0.00191   0.00535   2.07812
   R20        2.26117   0.00865   0.01790  -0.00960   0.00830   2.26947
    A1        2.09273   0.00280   0.00943   0.00493   0.01538   2.10810
    A2        2.09977  -0.00150  -0.00528   0.00002  -0.00463   2.09514
    A3        2.08976  -0.00136  -0.00438  -0.00697  -0.01470   2.07506
    A4        2.16722   0.00802   0.01826   0.02008   0.03501   2.20223
    A5        2.03579  -0.00742  -0.01971  -0.02350  -0.04164   1.99415
    A6        2.08017  -0.00060   0.00145   0.00348   0.00648   2.08665
    A7        2.00451  -0.01278  -0.02384  -0.04034  -0.06640   1.93811
    A8        2.16860   0.00796   0.01521   0.02401   0.03771   2.20631
    A9        2.07747   0.00125   0.00410   0.01356   0.01787   2.09534
   A10        2.03693  -0.00923  -0.01934  -0.03821  -0.05716   1.97977
   A11        2.07994  -0.00125  -0.00313  -0.00618  -0.01134   2.06860
   A12        2.13595   0.00330   0.01053   0.00631   0.01623   2.15217
   A13        2.06677  -0.00211  -0.00752  -0.00235  -0.01056   2.05622
   A14        2.05149  -0.00099  -0.00335  -0.00494  -0.01028   2.04121
   A15        2.15759  -0.00024  -0.00124   0.00301   0.00304   2.16063
   A16        2.07409   0.00122   0.00460   0.00192   0.00724   2.08133
   A17        2.12150   0.00020   0.00026   0.00034   0.00016   2.12166
   A18        2.09025  -0.00291  -0.00510  -0.01548  -0.02040   2.06985
   A19        2.07143   0.00271   0.00487   0.01518   0.02022   2.09165
   A20        2.09806  -0.00085   0.00108  -0.00557  -0.00474   2.09332
   A21        2.08778   0.00251   0.00115   0.01648   0.01771   2.10549
   A22        2.09735  -0.00166  -0.00222  -0.01092  -0.01306   2.08429
   A23        2.08487   0.00037  -0.00099   0.00313   0.00214   2.08701
   A24        2.10048  -0.00099   0.00019  -0.00508  -0.00494   2.09554
   A25        2.09772   0.00063   0.00081   0.00215   0.00291   2.10064
   A26        2.12099   0.00117   0.00268   0.00289   0.00551   2.12650
   A27        2.07971  -0.00126  -0.00341  -0.00404  -0.00768   2.07203
   A28        2.08248   0.00008   0.00077   0.00123   0.00178   2.08426
   A29        3.23026  -0.00258   0.02403  -0.18882  -0.16479   3.06547
   A30        3.13759   0.00012   0.00085   0.00136   0.00221   3.13980
   A31        3.18618  -0.00119   0.01195  -0.08895  -0.07700   3.10918
   A32        3.12096   0.00013  -0.00121   0.00466   0.00345   3.12441
    D1       -3.08665   0.00284   0.01208   0.09583   0.11017  -2.97648
    D2        0.05849   0.00223   0.01196   0.07461   0.08734   0.14583
    D3        0.10095   0.00439   0.02203   0.14611   0.17014   0.27109
    D4       -3.03710   0.00378   0.02191   0.12489   0.14730  -2.88980
    D5       -3.13445   0.00034   0.00218   0.00505   0.00915  -3.12530
    D6        0.00253   0.00031   0.00358   0.00328   0.00807   0.01060
    D7       -0.03905  -0.00110  -0.00774  -0.04530  -0.04982  -0.08887
    D8        3.09793  -0.00113  -0.00634  -0.04707  -0.05090   3.04703
    D9       -0.07262  -0.00340  -0.01720  -0.11327  -0.13135  -0.20396
   D10        3.06535  -0.00279  -0.01713  -0.09160  -0.10750   2.95785
   D11       -0.01397  -0.00045  -0.00097  -0.01417  -0.01713  -0.03110
   D12        3.10627  -0.00173  -0.00995  -0.05138  -0.06392   3.04235
   D13        0.06973   0.00282   0.01368   0.10396   0.11743   0.18716
   D14       -3.10734   0.00069   0.00097   0.02943   0.03073  -3.07662
   D15       -3.05096   0.00396   0.02263   0.13982   0.16081  -2.89015
   D16        0.05516   0.00184   0.00991   0.06529   0.07410   0.12926
   D17       -0.04034  -0.00177  -0.00860  -0.06947  -0.07617  -0.11651
   D18        3.10564  -0.00174  -0.00990  -0.06779  -0.07514   3.03051
   D19        3.13532   0.00016   0.00373   0.00191   0.00518   3.14050
   D20       -0.00188   0.00019   0.00243   0.00359   0.00621   0.00433
   D21       -3.11526   0.00269   0.01447   0.09679   0.11075  -3.00451
   D22        0.02923   0.00186   0.01038   0.06723   0.07724   0.10646
   D23       -0.00889   0.00059   0.00182   0.02272   0.02460   0.01570
   D24        3.13559  -0.00023  -0.00227  -0.00684  -0.00891   3.12668
   D25       -3.12596  -0.00053  -0.00497  -0.01645  -0.02096   3.13626
   D26        0.01117  -0.00018  -0.00204  -0.00657  -0.00830   0.00286
   D27        0.01095  -0.00057  -0.00360  -0.01826  -0.02211  -0.01115
   D28       -3.13510  -0.00022  -0.00067  -0.00838  -0.00945   3.13864
   D29       -0.00925   0.00017   0.00049   0.00683   0.00745  -0.00179
   D30        3.13295   0.00055   0.00325   0.01813   0.02158  -3.12865
   D31        3.13676  -0.00016  -0.00233  -0.00286  -0.00526   3.13150
   D32       -0.00422   0.00022   0.00044   0.00843   0.00886   0.00464
   D33       -0.00168   0.00062   0.00386   0.01951   0.02334   0.02166
   D34        3.12359   0.00101   0.00497   0.03428   0.03907  -3.12053
   D35        3.13930   0.00024   0.00106   0.00816   0.00939  -3.13449
   D36       -0.01861   0.00063   0.00217   0.02293   0.02513   0.00651
   D37        0.01081  -0.00100  -0.00501  -0.03447  -0.03967  -0.02885
   D38       -3.13368  -0.00017  -0.00095  -0.00487  -0.00595  -3.13962
   D39       -3.11448  -0.00137  -0.00611  -0.04915  -0.05537   3.11334
   D40        0.02422  -0.00054  -0.00205  -0.01955  -0.02165   0.00257
         Item               Value     Threshold  Converged?
 Maximum Force            0.012776     0.000450     NO 
 RMS     Force            0.003486     0.000300     NO 
 Maximum Displacement     0.348783     0.001800     NO 
 RMS     Displacement     0.076388     0.001200     NO 
 Predicted change in Energy=-4.857172D-03
 GradGradGradGradGradGradGradGradGradGradGradGradGradGradGradGradGradGrad

                          Input orientation:                          
 ---------------------------------------------------------------------
 Center     Atomic      Atomic             Coordinates (Angstroms)
 Number     Number       Type             X           Y           Z
 ---------------------------------------------------------------------
      1          7           0        2.056735    2.982326    1.422757
      2          6           0        3.203495    2.642437    1.296926
      3          6           0        4.557390    2.151313    1.061045
      4          6           0        5.690312    2.906010    1.481080
      5          6           0        7.066447    2.634309    1.145242
      6          6           0        7.201682    1.359732    0.552698
      7          6           0        6.140584    0.399135    0.327117
      8          6           0        4.762574    0.828610    0.515613
      9          6           0        3.693310   -0.066462    0.164376
     10          6           0        3.943193   -1.323720   -0.361690
     11          6           0        5.300927   -1.759253   -0.570084
     12          6           0        6.365485   -0.910870   -0.211770
     13          7           0        5.788143   -4.160162   -1.609474
     14          6           0        5.567061   -3.073317   -1.148843
     15          1           0        5.444488    3.784503    2.107947
     16          1           0        8.179897    1.036832    0.150819
     17          1           0        2.657134    0.267772    0.313764
     18          1           0        3.115107   -1.990047   -0.635797
     19          1           0        7.400576   -1.245098   -0.373665
 ---------------------------------------------------------------------
                    Distance matrix (angstroms):
                    1          2          3          4          5
     1  N    0.000000
     2  C    1.202671   0.000000
     3  C    2.659830   1.459409   0.000000
     4  C    3.634847   2.507518   1.424609   0.000000
     5  C    5.029448   3.865938   2.556510   1.442344   0.000000
     6  C    5.464457   4.264353   2.806652   2.353106   1.412070
     7  C    4.954909   3.820919   2.472909   2.796211   2.553929
     8  C    3.575328   2.516177   1.445386   2.471521   2.994130
     9  C    3.681984   2.976696   2.543457   3.815405   4.431062
    10  C    5.028420   4.362173   3.804900   4.933442   5.262276
    11  C    6.081017   5.221093   4.301854   5.111122   5.036148
    12  C    6.032742   4.990023   3.777066   4.229678   3.860197
    13  N    8.610050   7.836001   6.962840   7.713099   7.442268
    14  C    7.456966   6.651171   5.761927   6.533303   6.331507
    15  H    3.548217   2.642749   2.133133   1.106861   2.209186
    16  H    6.549495   5.353140   3.897837   3.385477   2.186453
    17  H    2.993183   2.627575   2.777972   4.186060   5.072859
    18  H    5.484733   5.020273   4.702161   5.923194   6.337969
    19  H    7.046622   5.959806   4.655932   4.857652   4.179536
                    6          7          8          9         10
     6  C    0.000000
     7  C    1.448986   0.000000
     8  C    2.496540   1.455641   0.000000
     9  C    3.807032   2.496481   1.438001   0.000000
    10  C    4.319116   2.875971   2.464461   1.385599   0.000000
    11  C    3.821200   2.483673   2.857550   2.447326   1.441027
    12  C    2.537571   1.434257   2.474712   2.827549   2.461792
    13  N    6.094449   4.966064   5.518662   4.928819   3.606412
    14  C    5.021867   3.816453   4.317714   3.778448   2.513493
    15  H    3.374322   3.888010   3.426053   4.655537   5.869151
    16  H    1.105747   2.143953   3.443040   4.620271   4.876939
    17  H    4.679998   3.485952   2.188186   1.098949   2.154770
    18  H    5.416053   3.973525   3.461895   2.162123   1.097658
    19  H    2.771795   2.186819   3.471330   3.927148   3.458297
                   11         12         13         14         15
    11  C    0.000000
    12  C    1.407631   0.000000
    13  N    2.661217   3.583964   0.000000
    14  C    1.460327   2.488326   1.200954   0.000000
    15  H    6.158384   5.317504   8.778099   7.592853   0.000000
    16  H    4.077531   2.686467   5.985639   5.040770   4.343099
    17  H    3.446688   3.926481   5.754013   4.665809   4.832787
    18  H    2.198952   3.450997   3.578067   2.729243   6.804379
    19  H    2.170590   1.099696   3.553134   2.702788   5.939829
                   16         17         18         19
    16  H    0.000000
    17  H    5.578433   0.000000
    18  H    5.952551   2.491818   0.000000
    19  H    2.467718   5.026090   4.357626   0.000000
 Stoichiometry    C12H5N2(1-)
 Framework group  C1[X(C12H5N2)]
 Deg. of freedom    51
 Full point group                 C1      NOp   1
 Largest Abelian subgroup         C1      NOp   1
 Largest concise Abelian subgroup C1      NOp   1
                         Standard orientation:                         
 ---------------------------------------------------------------------
 Center     Atomic      Atomic             Coordinates (Angstroms)
 Number     Number       Type             X           Y           Z
 ---------------------------------------------------------------------
      1          7           0       -3.444569   -2.393693   -0.059892
      2          6           0       -2.863198   -1.341878   -0.013956
      3          6           0       -2.062310   -0.121885   -0.005652
      4          6           0       -2.680468    1.155292    0.121671
      5          6           0       -2.034952    2.434158   -0.046165
      6          6           0       -0.631144    2.290694   -0.097971
      7          6           0        0.112586    1.054307    0.035346
      8          6           0       -0.619289   -0.203633    0.006435
      9          6           0        0.111792   -1.441900   -0.001619
     10          6           0        1.497164   -1.466247    0.004325
     11          6           0        2.238118   -0.230369    0.016668
     12          6           0        1.545536    0.994663    0.049111
     13          7           0        4.898979   -0.268833   -0.003804
     14          6           0        3.698137   -0.252449   -0.003665
     15          1           0       -3.761792    1.115905    0.354753
     16          1           0        0.007275    3.166357   -0.317769
     17          1           0       -0.451655   -2.385221   -0.020655
     18          1           0        2.039910   -2.420153   -0.014192
     19          1           0        2.113551    1.936276    0.056578
 ---------------------------------------------------------------------
 Rotational constants (GHZ):      1.4102218      0.4590800      0.3466440
 Standard basis: STO-3G (5D, 7F)
 There are    75 symmetry adapted cartesian basis functions of A   symmetry.
 There are    75 symmetry adapted basis functions of A   symmetry.
    75 basis functions,   225 primitive gaussians,    75 cartesian basis functions
    46 alpha electrons       46 beta electrons
       nuclear repulsion energy       693.5211947951 Hartrees.
 NAtoms=   19 NActive=   19 NUniq=   19 SFac= 1.00D+00 NAtFMM=   60 NAOKFM=F Big=F
 Integral buffers will be    131072 words long.
 Raffenetti 2 integral format.
 Two-electron integral symmetry is turned on.
 One-electron integrals computed using PRISM.
 NBasis=    75 RedAO= T EigKep=  1.76D-01  NBF=    75
 NBsUse=    75 1.00D-06 EigRej= -1.00D+00 NBFU=    75
 Initial guess from the checkpoint file:  "/tmp/bnp.472676.sequoia/Gau-26715.chk"
 B after Tr=     0.000000    0.000000    0.000000
         Rot=    0.999991    0.000087   -0.000026   -0.004330 Ang=   0.50 deg.
 ExpMin= 1.69D-01 ExpMax= 9.91D+01 ExpMxC= 9.91D+01 IAcc=1 IRadAn=         1 AccDes= 0.00D+00
 Harris functional with IExCor=  402 and IRadAn=       1 diagonalized for initial guess.
 HarFok:  IExCor=  402 AccDes= 0.00D+00 IRadAn=         1 IDoV= 1 UseB2=F ITyADJ=14
 ICtDFT=  3500011 ScaDFX=  1.000000  1.000000  1.000000  1.000000
 FoFCou: FMM=F IPFlag=           0 FMFlag=      100000 FMFlg1=           0
         NFxFlg=           0 DoJE=T BraDBF=F KetDBF=T FulRan=T
         wScrn=  0.000000 ICntrl=     500 IOpCl=  0 I1Cent=   200000004 NGrid=           0
         NMat0=    1 NMatS0=      1 NMatT0=    0 NMatD0=    1 NMtDS0=    0 NMtDT0=    0
 Petite list used in FoFCou.
 Keep R1 ints in memory in canonical form, NReq=4993994.
 Requested convergence on RMS density matrix=1.00D-08 within 128 cycles.
 Requested convergence on MAX density matrix=1.00D-06.
 Requested convergence on             energy=1.00D-06.
 No special actions if energy rises.
 Integral accuracy reduced to 1.0D-05 until final iterations.
 Initial convergence to 1.0D-05 achieved.  Increase integral accuracy.
 SCF Done:  E(RB3LYP) =  -562.515504861     A.U. after   18 cycles
            NFock= 18  Conv=0.30D-08     -V/T= 2.0142
 Calling FoFJK, ICntrl=      2127 FMM=F ISym2X=0 I1Cent= 0 IOpClX= 0 NMat=1 NMatS=1 NMatT=0.
 ***** Axes restored to original set *****
 -------------------------------------------------------------------
 Center     Atomic                   Forces (Hartrees/Bohr)
 Number     Number              X              Y              Z
 -------------------------------------------------------------------
      1        7           0.003490619    0.002492729    0.003513196
      2        6          -0.003320968   -0.006539014   -0.008850487
      3        6           0.000740044    0.005542256    0.004857491
      4        6          -0.000220005    0.001932081    0.003620723
      5        6          -0.004840404   -0.005461714   -0.003190364
      6        6           0.005466384    0.003389512   -0.000871596
      7        6          -0.002175681   -0.002315018   -0.000789518
      8        6          -0.000748976   -0.000552507   -0.000291365
      9        6          -0.000926048    0.000123852   -0.000354061
     10        6          -0.000568181   -0.000456079   -0.000585507
     11        6           0.000382765   -0.001190403   -0.000293108
     12        6           0.000948035    0.002232781    0.001146792
     13        7          -0.000348457    0.001505648    0.000365175
     14        6          -0.000192640   -0.000905957   -0.000046186
     15        1           0.001453845   -0.000096655    0.000413559
     16        1           0.000200968    0.000554663    0.000264629
     17        1           0.000451196    0.000154689    0.000266430
     18        1           0.000564103   -0.000304303    0.000194288
     19        1          -0.000356600   -0.000106561    0.000629910
 -------------------------------------------------------------------
 Cartesian Forces:  Max     0.008850487 RMS     0.002547589

 GradGradGradGradGradGradGradGradGradGradGradGradGradGradGradGradGradGrad
 Berny optimization.
 Using GEDIIS/GDIIS optimizer.
 FormGI is forming the generalized inverse of G from B-inverse, IUseBI=4.
 Internal  Forces:  Max     0.010302303 RMS     0.001668930
 Search for a local minimum.
 Step number   3 out of a maximum of  102
 All quantities printed in internal units (Hartrees-Bohrs-Radians)
 Mixed Optimization -- RFO/linear search
 Update second derivatives using D2CorX and points    2    3
 DE= -3.56D-03 DEPred=-4.86D-03 R= 7.34D-01
 TightC=F SS=  1.41D+00  RLast= 4.95D-01 DXNew= 8.4853D-01 1.4864D+00
 Trust test= 7.34D-01 RLast= 4.95D-01 DXMaxT set to 8.49D-01
 ITU=  1  1  0
 Use linear search instead of GDIIS.
     Eigenvalues ---    0.01275   0.01606   0.01881   0.01897   0.01962
     Eigenvalues ---    0.01992   0.02009   0.02053   0.02073   0.02118
     Eigenvalues ---    0.02135   0.02138   0.02145   0.02157   0.02191
     Eigenvalues ---    0.03677   0.04856   0.04857   0.15500   0.15990
     Eigenvalues ---    0.15994   0.16001   0.16155   0.22371   0.23021
     Eigenvalues ---    0.23332   0.23553   0.24485   0.24874   0.25000
     Eigenvalues ---    0.25366   0.34800   0.34805   0.34934   0.34992
     Eigenvalues ---    0.35041   0.38696   0.40194   0.40400   0.40765
     Eigenvalues ---    0.41035   0.42835   0.43635   0.44607   0.45132
     Eigenvalues ---    0.45579   0.46323   0.46940   0.49364   1.27509
     Eigenvalues ---    1.30036
 RFO step:  Lambda=-4.14657390D-03 EMin= 1.27456190D-02
 Quartic linear search produced a step of -0.18369.
 Iteration  1 RMS(Cart)=  0.05698340 RMS(Int)=  0.01336238
 Iteration  2 RMS(Cart)=  0.02663908 RMS(Int)=  0.00158792
 Iteration  3 RMS(Cart)=  0.00160828 RMS(Int)=  0.00016228
 Iteration  4 RMS(Cart)=  0.00000318 RMS(Int)=  0.00016227
 Iteration  5 RMS(Cart)=  0.00000000 RMS(Int)=  0.00016227
 Variable       Old X    -DE/DX   Delta X   Delta X   Delta X     New X
                                 (Linear)    (Quad)   (Total)
    R1        2.27272  -0.00226  -0.00175  -0.00231  -0.00406   2.26866
    R2        2.75788  -0.00238  -0.00090  -0.00535  -0.00625   2.75164
    R3        2.69212   0.00013   0.00109  -0.00961  -0.00857   2.68355
    R4        2.73138   0.00198  -0.00186   0.00656   0.00466   2.73605
    R5        2.72564  -0.00093  -0.00555   0.01185   0.00626   2.73189
    R6        2.09166  -0.00017  -0.00135   0.00173   0.00038   2.09205
    R7        2.66843  -0.00354  -0.00175  -0.00243  -0.00414   2.66428
    R8        2.73819   0.00182  -0.00192   0.00231   0.00046   2.73864
    R9        2.08956  -0.00008  -0.00143   0.00256   0.00113   2.09069
   R10        2.75076   0.00099  -0.00103  -0.00130  -0.00239   2.74838
   R11        2.71035  -0.00199  -0.00021  -0.00881  -0.00906   2.70129
   R12        2.71743   0.00061  -0.00093   0.00079  -0.00016   2.71727
   R13        2.61840   0.00082   0.00270  -0.00802  -0.00528   2.61313
   R14        2.07671  -0.00035  -0.00052  -0.00027  -0.00079   2.07592
   R15        2.72315   0.00015  -0.00340   0.00552   0.00219   2.72534
   R16        2.07427  -0.00029  -0.00055   0.00001  -0.00054   2.07374
   R17        2.66004   0.00064   0.00183  -0.00922  -0.00736   2.65267
   R18        2.75962  -0.00076  -0.00135  -0.00122  -0.00256   2.75705
   R19        2.07812  -0.00040  -0.00098   0.00149   0.00050   2.07863
   R20        2.26947  -0.00157  -0.00153  -0.00240  -0.00393   2.26555
    A1        2.10810   0.00233  -0.00282   0.01530   0.01279   2.12089
    A2        2.09514  -0.00209   0.00085  -0.00643  -0.00522   2.08992
    A3        2.07506  -0.00022   0.00270  -0.01089  -0.00862   2.06644
    A4        2.20223  -0.00292  -0.00643   0.00426  -0.00268   2.19955
    A5        1.99415   0.00294   0.00765  -0.00783  -0.00013   1.99402
    A6        2.08665  -0.00003  -0.00119   0.00298   0.00185   2.08850
    A7        1.93811   0.00531   0.01220  -0.02337  -0.01183   1.92628
    A8        2.20631  -0.00302  -0.00693   0.00860   0.00139   2.20769
    A9        2.09534   0.00087  -0.00328   0.01388   0.01081   2.10616
   A10        1.97977   0.00217   0.01050  -0.02300  -0.01230   1.96747
   A11        2.06860   0.00002   0.00208  -0.00739  -0.00555   2.06304
   A12        2.15217  -0.00075  -0.00298   0.00520   0.00258   2.15475
   A13        2.05622   0.00072   0.00194  -0.00257  -0.00059   2.05563
   A14        2.04121   0.00050   0.00189  -0.00535  -0.00383   2.03738
   A15        2.16063   0.00002  -0.00056   0.00336   0.00312   2.16375
   A16        2.08133  -0.00052  -0.00133   0.00195   0.00066   2.08199
   A17        2.12166  -0.00020  -0.00003  -0.00044  -0.00054   2.12112
   A18        2.06985  -0.00030   0.00375  -0.01390  -0.01012   2.05973
   A19        2.09165   0.00050  -0.00371   0.01437   0.01068   2.10233
   A20        2.09332  -0.00007   0.00087  -0.00370  -0.00279   2.09053
   A21        2.10549   0.00058  -0.00325   0.01461   0.01134   2.11682
   A22        2.08429  -0.00050   0.00240  -0.01089  -0.00850   2.07579
   A23        2.08701   0.00005  -0.00039   0.00204   0.00166   2.08867
   A24        2.09554  -0.00067   0.00091  -0.00565  -0.00476   2.09078
   A25        2.10064   0.00061  -0.00054   0.00361   0.00306   2.10369
   A26        2.12650   0.00001  -0.00101   0.00230   0.00120   2.12770
   A27        2.07203  -0.00001   0.00141  -0.00384  -0.00236   2.06967
   A28        2.08426   0.00001  -0.00033   0.00116   0.00090   2.08516
   A29        3.06547   0.01030   0.03027   0.27573   0.30600   3.37147
   A30        3.13980   0.00014  -0.00041   0.00325   0.00285   3.14265
   A31        3.10918   0.00511   0.01414   0.14004   0.15419   3.26337
   A32        3.12441   0.00046  -0.00063   0.00976   0.00913   3.13354
    D1       -2.97648   0.00097  -0.02024   0.10893   0.08838  -2.88809
    D2        0.14583   0.00040  -0.01604   0.07252   0.05638   0.20221
    D3        0.27109   0.00082  -0.03125   0.13114   0.09961   0.37070
    D4       -2.88980   0.00025  -0.02706   0.09473   0.06761  -2.82218
    D5       -3.12530  -0.00095  -0.00168  -0.01586  -0.01777   3.14012
    D6        0.01060  -0.00105  -0.00148  -0.02263  -0.02427  -0.01367
    D7       -0.08887  -0.00053   0.00915  -0.03654  -0.02766  -0.11653
    D8        3.04703  -0.00062   0.00935  -0.04332  -0.03417   3.01286
    D9       -0.20396  -0.00087   0.02413  -0.10262  -0.07835  -0.28231
   D10        2.95785  -0.00029   0.01975  -0.06435  -0.04475   2.91310
   D11       -0.03110   0.00011   0.00315  -0.01267  -0.00934  -0.04043
   D12        3.04235   0.00058   0.01174  -0.02373  -0.01174   3.03061
   D13        0.18716   0.00070  -0.02157   0.09158   0.06998   0.25714
   D14       -3.07662   0.00073  -0.00564   0.04463   0.03892  -3.03769
   D15       -2.89015   0.00028  -0.02954   0.10085   0.07147  -2.81868
   D16        0.12926   0.00032  -0.01361   0.05390   0.04042   0.16968
   D17       -0.11651  -0.00063   0.01399  -0.06093  -0.04705  -0.16356
[...]
 ! D14   D(5,6,7,12)          -169.8226         -DE/DX =    0.0                 !
 ! D15   D(16,6,7,8)          -157.0456         -DE/DX =    0.0                 !
 ! D16   D(16,6,7,12)           15.0411         -DE/DX =    0.0                 !
 ! D17   D(6,7,8,3)            -10.7315         -DE/DX =    0.0                 !
 ! D18   D(6,7,8,9)            170.7045         -DE/DX =    0.0                 !
 ! D19   D(12,7,8,3)           176.7435         -DE/DX =    0.0                 !
 ! D20   D(12,7,8,9)            -1.8205         -DE/DX =    0.0                 !
 ! D21   D(6,7,12,11)         -169.7425         -DE/DX =    0.0                 !
 ! D22   D(6,7,12,19)            8.5285         -DE/DX =    0.0                 !
 ! D23   D(8,7,12,11)            2.2534         -DE/DX =    0.0                 !
 ! D24   D(8,7,12,19)         -179.4756         -DE/DX =    0.0                 !
 ! D25   D(3,8,9,10)          -177.6904         -DE/DX =    0.0                 !
 ! D26   D(3,8,9,17)             1.8299         -DE/DX =    0.0                 !
 ! D27   D(7,8,9,10)             0.7964         -DE/DX =    0.0                 !
 ! D28   D(7,8,9,17)          -179.6834         -DE/DX =    0.0                 !
 ! D29   D(8,9,10,11)           -0.1146         -DE/DX =    0.0                 !
 ! D30   D(8,9,10,18)          179.9542         -DE/DX =    0.0                 !
 ! D31   D(17,9,10,11)        -179.6276         -DE/DX =    0.0                 !
 ! D32   D(17,9,10,18)           0.4412         -DE/DX =    0.0                 !
 ! D33   D(9,10,11,12)           0.4771         -DE/DX =    0.0                 !
 ! D34   D(9,10,11,14)        -179.0036         -DE/DX =    0.0                 !
 ! D35   D(18,10,11,12)       -179.5907         -DE/DX =    0.0                 !
 ! D36   D(18,10,11,14)          0.9286         -DE/DX =    0.0                 !
 ! D37   D(10,11,12,7)          -1.5854         -DE/DX =    0.0                 !
 ! D38   D(10,11,12,19)       -179.85           -DE/DX =    0.0                 !
 ! D39   D(14,11,12,7)         177.8917         -DE/DX =    0.0                 !
 ! D40   D(14,11,12,19)         -0.3729         -DE/DX =    0.0                 !
 --------------------------------------------------------------------------------
 GradGradGradGradGradGradGradGradGradGradGradGradGradGradGradGradGradGrad

                          Input orientation:                          
 ---------------------------------------------------------------------
 Center     Atomic      Atomic             Coordinates (Angstroms)
 Number     Number       Type             X           Y           Z
 ---------------------------------------------------------------------
      1          7           0        2.088524    3.106984    1.388569
      2          6           0        3.191161    2.658732    1.218896
      3          6           0        4.542313    2.152831    1.060900
      4          6           0        5.675955    2.858749    1.581057
      5          6           0        6.997650    2.595554    1.143489
      6          6           0        7.198975    1.396134    0.471983
      7          6           0        6.146296    0.397940    0.298842
      8          6           0        4.767477    0.840519    0.489279
      9          6           0        3.701092   -0.057604    0.130449
     10          6           0        3.954339   -1.325981   -0.371162
     11          6           0        5.309259   -1.776631   -0.548359
     12          6           0        6.374793   -0.917860   -0.196698
     13          7           0        5.786608   -4.196442   -1.538142
     14          6           0        5.571318   -3.101267   -1.095814
     15          1           0        5.475093    3.637665    2.338294
     16          1           0        8.150776    1.173350   -0.040261
     17          1           0        2.665150    0.279773    0.269743
     18          1           0        3.128107   -1.997183   -0.638604
     19          1           0        7.409654   -1.261213   -0.334402
 ---------------------------------------------------------------------
                    Distance matrix (angstroms):
                    1          2          3          4          5
     1  N    0.000000
     2  C    1.202301   0.000000
     3  C    2.653084   1.451382   0.000000
     4  C    3.601156   2.519001   1.433187   0.000000
     5  C    4.941775   3.807760   2.496298   1.416904   0.000000
     6  C    5.466612   4.267857   2.824405   2.385137   1.389266
     7  C    4.999193   3.832819   2.496624   2.814405   2.503545
     8  C    3.622482   2.514560   1.449003   2.467907   2.912355
     9  C    3.768005   2.970392   2.541538   3.809129   4.351183
    10  C    5.121435   4.357598   3.807709   4.928193   5.189831
    11  C    6.162347   5.223215   4.314927   5.114257   4.982872
    12  C    6.089708   4.993138   3.790604   4.232206   3.811579
    13  N    8.693762   7.831412   6.972557   7.714750   7.401958
    14  C    7.539522   6.648354   5.771985   6.534400   6.285115
    15  H    3.557028   2.725383   2.169458   1.104746   2.198121
    16  H    6.521609   5.328190   3.897812   3.404994   2.180282
    17  H    3.094736   2.614770   2.767312   4.175597   4.989673
    18  H    5.589516   5.013165   4.702224   5.915953   6.264380
    19  H    7.096774   5.964427   4.671639   4.863002   4.150730
                    6          7          8          9         10
     6  C    0.000000
     7  C    1.460994   0.000000
     8  C    2.494232   1.460576   0.000000
     9  C    3.803313   2.492969   1.439639   0.000000
    10  C    4.318387   2.868010   2.468861   1.387273   0.000000
    11  C    3.831262   2.479343   2.867001   2.449905   1.438851
    12  C    2.545777   1.424465   2.479098   2.827674   2.460812
    13  N    6.108379   4.961072   5.524495   4.925804   3.599805
    14  C    5.033277   3.810527   4.323929   3.776950   2.508263
    15  H    3.388119   3.886605   3.426895   4.655822   5.855906
    16  H    1.103608   2.175820   3.440625   4.619964   4.895531
    17  H    4.673622   3.483272   2.186873   1.098364   2.156667
    18  H    5.414793   3.965461   3.465863   2.163729   1.097587
    19  H    2.784984   2.179418   3.475173   3.926601   3.456118
                   11         12         13         14         15
    11  C    0.000000
    12  C    1.412981   0.000000
    13  N    2.657634   3.590896   0.000000
    14  C    1.457066   2.494243   1.200588   0.000000
    15  H    6.137986   5.290412   8.746259   7.564097   0.000000
    16  H    4.127319   2.748044   6.055378   5.102954   4.346223
    17  H    3.448102   3.925983   5.748778   4.662831   4.842534
    18  H    2.194132   3.449810   3.565604   2.719802   6.791302
    19  H    2.173268   1.098996   3.563543   2.710171   5.906339
                   16         17         18         19
    16  H    0.000000
    17  H    5.566567   0.000000
    18  H    5.969715   2.494785   0.000000
    19  H    2.561811   5.024933   4.354979   0.000000
 Stoichiometry    C12H5N2(1-)
 Framework group  C1[X(C12H5N2)]
 Deg. of freedom    51
 Full point group                 C1      NOp   1
 Largest Abelian subgroup         C1      NOp   1
 Largest concise Abelian subgroup C1      NOp   1
                         Standard orientation:                         
 ---------------------------------------------------------------------
 Center     Atomic      Atomic             Coordinates (Angstroms)
 Number     Number       Type             X           Y           Z
 ---------------------------------------------------------------------
      1          7           0       -3.548988   -2.322012   -0.084056
      2          6           0       -2.856342   -1.339791   -0.052277
      3          6           0       -2.065496   -0.124741    0.016476
      4          6           0       -2.668980    1.153844    0.251116
      5          6           0       -1.999396    2.370227   -0.031170
      6          6           0       -0.622055    2.293657   -0.195877
      7          6           0        0.132814    1.058632    0.002594
      8          6           0       -0.618435   -0.193835   -0.012685
      9          6           0        0.112419   -1.434110   -0.024162
     10          6           0        1.499255   -1.462928   -0.004628
     11          6           0        2.248021   -0.234623    0.025536
     12          6           0        1.555295    0.996741    0.045236
     13          7           0        4.904908   -0.297268    0.032333
     14          6           0        3.704692   -0.268521    0.024054
     15          1           0       -3.697596    1.154403    0.654122
     16          1           0       -0.036142    3.151201   -0.569074
     17          1           0       -0.454996   -2.374408   -0.040981
     18          1           0        2.039244   -2.418459   -0.013049
     19          1           0        2.127306    1.934917    0.065766
 ---------------------------------------------------------------------
 Rotational constants (GHZ):      1.4375744      0.4545993      0.3464151

 **********************************************************************

            Population analysis using the SCF density.

 **********************************************************************

 Orbital symmetries:
       Occupied  (A) (A) (A) (A) (A) (A) (A) (A) (A) (A) (A) (A)
                 (A) (A) (A) (A) (A) (A) (A) (A) (A) (A) (A) (A)
                 (A) (A) (A) (A) (A) (A) (A) (A) (A) (A) (A) (A)
                 (A) (A) (A) (A) (A) (A) (A) (A) (A) (A)
       Virtual   (A) (A) (A) (A) (A) (A) (A) (A) (A) (A) (A) (A)
                 (A) (A) (A) (A) (A) (A) (A) (A) (A) (A) (A) (A)
                 (A) (A) (A) (A) (A)
 The electronic state is 1-A.
 Alpha  occ. eigenvalues --  -13.98963 -13.95298  -9.90184  -9.89580  -9.87906
 Alpha  occ. eigenvalues --   -9.87644  -9.87437  -9.86854  -9.86316  -9.86293
 Alpha  occ. eigenvalues --   -9.85977  -9.82668  -9.80881  -9.70909  -0.72671
 Alpha  occ. eigenvalues --   -0.69711  -0.67377  -0.61815  -0.58093  -0.54569
 Alpha  occ. eigenvalues --   -0.51723  -0.44620  -0.42135  -0.41348  -0.35020
 Alpha  occ. eigenvalues --   -0.32916  -0.28590  -0.27884  -0.25729  -0.23696
 Alpha  occ. eigenvalues --   -0.21786  -0.20761  -0.19520  -0.17510  -0.16269
 Alpha  occ. eigenvalues --   -0.15447  -0.13980  -0.13696  -0.13518  -0.12164
 Alpha  occ. eigenvalues --   -0.10984  -0.08935  -0.07345  -0.02125   0.00653
 Alpha  occ. eigenvalues --    0.08593
 Alpha virt. eigenvalues --    0.17352   0.20025   0.24306   0.25648   0.28395
 Alpha virt. eigenvalues --    0.29612   0.34918   0.37355   0.43213   0.43911
 Alpha virt. eigenvalues --    0.47805   0.51514   0.53888   0.56186   0.57533
 Alpha virt. eigenvalues --    0.59390   0.59658   0.62840   0.67987   0.70246
 Alpha virt. eigenvalues --    0.71154   0.75288   0.77014   0.82987   0.85340
 Alpha virt. eigenvalues --    0.92499   0.93551   1.06809   1.09944
          Condensed to atoms (all electrons):
               1          2          3          4          5          6
     1  N    6.626446   0.653345  -0.011422  -0.000137  -0.000001   0.000000
     2  C    0.653345   4.950517   0.425968  -0.026536   0.000750   0.000046
     3  C   -0.011422   0.425968   4.836126   0.465898  -0.021906  -0.011050
     4  C   -0.000137  -0.026536   0.465898   4.887657   0.468867  -0.031812
     5  C   -0.000001   0.000750  -0.021906   0.468867   5.315291   0.507144
     6  C    0.000000   0.000046  -0.011050  -0.031812   0.507144   4.903960
     7  C   -0.000001   0.000724  -0.028347  -0.012522  -0.022847   0.438801
     8  C    0.000013  -0.029275   0.465123  -0.030097  -0.008803  -0.029663
     9  C   -0.000103  -0.004276  -0.027048   0.000642   0.000037   0.000732
    10  C    0.000000   0.000017   0.000726  -0.000007   0.000000   0.000030
    11  C    0.000000   0.000000   0.000034  -0.000001  -0.000007   0.000676
    12  C    0.000000  -0.000005   0.000765   0.000063   0.000714  -0.025588
    13  N    0.000000   0.000000   0.000000   0.000000   0.000000   0.000000
    14  C    0.000000   0.000000   0.000000   0.000000   0.000000  -0.000005
    15  H    0.000096  -0.003004  -0.032437   0.381161  -0.031094   0.001914
    16  H    0.000000   0.000001   0.000035   0.002040  -0.031494   0.381009
    17  H   -0.000081   0.001611  -0.003441   0.000021  -0.000001  -0.000017
    18  H    0.000000   0.000000  -0.000015   0.000000   0.000000   0.000000
    19  H    0.000000   0.000000  -0.000016   0.000001   0.000019  -0.003160
               7          8          9         10         11         12
     1  N   -0.000001   0.000013  -0.000103   0.000000   0.000000   0.000000
     2  C    0.000724  -0.029275  -0.004276   0.000017   0.000000  -0.000005
     3  C   -0.028347   0.465123  -0.027048   0.000726   0.000034   0.000765
     4  C   -0.012522  -0.030097   0.000642  -0.000007  -0.000001   0.000063
     5  C   -0.022847  -0.008803   0.000037   0.000000  -0.000007   0.000714
     6  C    0.438801  -0.029663   0.000732   0.000030   0.000676  -0.025588
     7  C    4.824114   0.453791  -0.025140  -0.008666  -0.026473   0.482661
     8  C    0.453791   4.801467   0.467819  -0.027011  -0.009008  -0.027606
     9  C   -0.025140   0.467819   4.832732   0.527269  -0.029263  -0.009381
    10  C   -0.008666  -0.027011   0.527269   4.827572   0.465937  -0.029578
    11  C   -0.026473  -0.009008  -0.029263   0.465937   4.781816   0.495672
    12  C    0.482661  -0.027606  -0.009381  -0.029578   0.495672   4.838629
    13  N   -0.000001   0.000000  -0.000001  -0.000081  -0.011149  -0.000100
    14  C    0.000814   0.000013   0.000844  -0.028521   0.423960  -0.028581
    15  H    0.000016   0.001145  -0.000015   0.000000   0.000000   0.000002
    16  H   -0.032693   0.001141  -0.000019  -0.000001   0.000004  -0.003290
    17  H    0.001212  -0.024969   0.386352  -0.025833   0.001371   0.000022
    18  H    0.000031   0.001334  -0.024946   0.387620  -0.024960   0.001227
    19  H   -0.025054   0.001283   0.000031   0.001273  -0.025864   0.385575
              13         14         15         16         17         18
     1  N    0.000000   0.000000   0.000096   0.000000  -0.000081   0.000000
     2  C    0.000000   0.000000  -0.003004   0.000001   0.001611   0.000000
     3  C    0.000000   0.000000  -0.032437   0.000035  -0.003441  -0.000015
     4  C    0.000000   0.000000   0.381161   0.002040   0.000021   0.000000
     5  C    0.000000   0.000000  -0.031094  -0.031494  -0.000001   0.000000
     6  C    0.000000  -0.000005   0.001914   0.381009  -0.000017   0.000000
     7  C   -0.000001   0.000814   0.000016  -0.032693   0.001212   0.000031
     8  C    0.000000   0.000013   0.001145   0.001141  -0.024969   0.001334
     9  C   -0.000001   0.000844  -0.000015  -0.000019   0.386352  -0.024946
    10  C   -0.000081  -0.028521   0.000000  -0.000001  -0.025833   0.387620
    11  C   -0.011149   0.423960   0.000000   0.000004   0.001371  -0.024960
    12  C   -0.000100  -0.028581   0.000002  -0.003290   0.000022   0.001227
    13  N    6.598570   0.658561   0.000000   0.000000   0.000000   0.000057
    14  C    0.658561   4.937255   0.000000   0.000000  -0.000016  -0.003030
    15  H    0.000000   0.000000   0.646859  -0.000020  -0.000001   0.000000
    16  H    0.000000   0.000000  -0.000020   0.657259   0.000000   0.000000
    17  H    0.000000  -0.000016  -0.000001   0.000000   0.600010  -0.003862
    18  H    0.000057  -0.003030   0.000000   0.000000  -0.003862   0.605220
    19  H    0.000061  -0.003378   0.000000   0.001057   0.000002  -0.000033
              19
     1  N    0.000000
     2  C    0.000000
     3  C   -0.000016
     4  C    0.000001
     5  C    0.000019
     6  C   -0.003160
     7  C   -0.025054
     8  C    0.001283
     9  C    0.000031
    10  C    0.001273
    11  C   -0.025864
    12  C    0.385575
    13  N    0.000061
    14  C   -0.003378
    15  H    0.000000
    16  H    0.001057
    17  H    0.000002
    18  H   -0.000033
    19  H    0.603652
 Mulliken charges:
               1
     1  N   -0.268156
     2  C    0.030116
     3  C   -0.058994
     4  C   -0.105239
     5  C   -0.176668
     6  C   -0.133017
     7  C   -0.020422
     8  C   -0.006698
     9  C   -0.096267
    10  C   -0.090746
    11  C   -0.042745
    12  C   -0.081202
    13  N   -0.245918
    14  C    0.042084
    15  H    0.035378
    16  H    0.024970
    17  H    0.067620
    18  H    0.061357
    19  H    0.064549
 Sum of Mulliken charges =  -1.00000
 Mulliken charges with hydrogens summed into heavy atoms:
               1
     1  N   -0.268156
     2  C    0.030116
     3  C   -0.058994
     4  C   -0.069862
     5  C   -0.176668
     6  C   -0.108047
     7  C   -0.020422
     8  C   -0.006698
     9  C   -0.028648
    10  C   -0.029390
    11  C   -0.042745
    12  C   -0.016652
    13  N   -0.245918
    14  C    0.042084
 Electronic spatial extent (au):  <R**2>=           2919.1183
 Charge=             -1.0000 electrons
 Dipole moment (field-independent basis, Debye):
    X=              2.3423    Y=             -1.0399    Z=              0.1971  Tot=              2.5703
 Quadrupole moment (field-independent basis, Debye-Ang):
   XX=           -131.0470   YY=            -93.4844   ZZ=            -74.4609
   XY=             -0.6885   XZ=             -1.0124   YZ=              0.1099
 Traceless Quadrupole moment (field-independent basis, Debye-Ang):
   XX=            -31.3829   YY=              6.1798   ZZ=             25.2032
   XY=             -0.6885   XZ=             -1.0124   YZ=              0.1099
 Octapole moment (field-independent basis, Debye-Ang**2):
  XXX=            -86.6316  YYY=            -21.9193  ZZZ=             -0.0558  XYY=             66.8354
  XXY=             35.8738  XXZ=              1.7490  XZZ=              1.4202  YZZ=             -2.5406
  YYZ=              1.8568  XYZ=              0.1920
 Hexadecapole moment (field-independent basis, Debye-Ang**3):
 XXXX=          -3917.5210 YYYY=          -1102.9077 ZZZZ=            -66.0357 XXXY=            -66.9907
 XXXZ=            -17.5027 YYYX=              3.3324 YYYZ=              0.1085 ZZZX=              0.9527
 ZZZY=              0.7346 XXYY=           -789.4596 XXZZ=           -457.8709 YYZZ=           -173.3830
 XXYZ=             -1.4154 YYXZ=             -6.5466 ZZXY=              6.7625
 N-N= 6.938854940056D+02 E-N=-2.709622378360D+03  KE= 5.546195472848D+02
 1\1\GINC-N052\FOpt\RB3LYP\STO-3G\C12H5N2(1-)\R2532\15-Jun-2021\0\\#N B
 3LYP/STO-3G OPT\\1Naph\\-1,1\N,2.0885242787,3.1069843715,1.3885689957\
 C,3.1911610654,2.6587318742,1.2188957498\C,4.5423132993,2.1528306462,1
 .0609003247\C,5.6759545345,2.8587492678,1.5810567806\C,6.9976499426,2.
 5955539724,1.1434890198\C,7.1989753533,1.3961342223,0.4719831355\C,6.1
 462955441,0.3979400633,0.2988421773\C,4.7674769512,0.8405194014,0.4892
 785538\C,3.7010921796,-0.0576041336,0.1304492283\C,3.9543390611,-1.325
 9807552,-0.3711624625\C,5.3092592395,-1.7766312271,-0.5483589601\C,6.3
 747930241,-0.9178603468,-0.1966978214\N,5.7866075854,-4.1964421539,-1.
 5381415729\C,5.5713181074,-3.1012669913,-1.0958136509\H,5.4750934319,3
 .6376654388,2.3382944494\H,8.1507755941,1.1733496537,-0.0402612775\H,2
 .6651496887,0.2797731299,0.2697426832\H,3.128106695,-1.9971832601,-0.6
 386036977\H,7.4096544241,-1.2612131734,-0.3344016551\\Version=ES64L-G0
 9RevD.01\State=1-A\HF=-562.5176267\RMSD=3.533e-09\RMSF=1.802e-05\Dipol
 e=-0.2123935,-0.9429644,-0.2971995\Quadrupole=3.2456591,-16.6162768,13
 .3706177,5.5034778,2.4634624,-13.7871565\PG=C01 [X(C12H5N2)]\\@


 SILVERMAN'S PARADOX - IF MURPHY'S LAW CAN GO WRONG, IT WILL.
 Job cpu time:       0 days  0 hours  4 minutes 53.1 seconds.
 File lengths (MBytes):  RWF=      5 Int=      0 D2E=      0 Chk=      2 Scr=      1
 Normal termination of Gaussian 09 at Tue Jun 15 11:18:32 2021.
