 Entering Gaussian System, Link 0=/usr/local/apps//g09/g09
 Input=38.com
 Output=38.out
 Initial command:
 /usr/local/apps//g09/l1.exe "/tmp/bnp.472690.sequoia/Gau-15961.inp" -scrdir="/tmp/bnp.472690.sequoia/"
 Entering Link 1 = /usr/local/apps//g09/l1.exe PID=     15962.
  
 Copyright (c) 1988,1990,1992,1993,1995,1998,2003,2009,2013,
            Gaussian, Inc.  All Rights Reserved.
  
 This is part of the Gaussian(R) 09 program.  It is based on
 the Gaussian(R) 03 system (copyright 2003, Gaussian, Inc.),
 the Gaussian(R) 98 system (copyright 1998, Gaussian, Inc.),
 the Gaussian(R) 94 system (copyright 1995, Gaussian, Inc.),
 the Gaussian 92(TM) system (copyright 1992, Gaussian, Inc.),
 the Gaussian 90(TM) system (copyright 1990, Gaussian, Inc.),
 the Gaussian 88(TM) system (copyright 1988, Gaussian, Inc.),
 the Gaussian 86(TM) system (copyright 1986, Carnegie Mellon
 University), and the Gaussian 82(TM) system (copyright 1983,
 Carnegie Mellon University). Gaussian is a federally registered
 trademark of Gaussian, Inc.
  
 This software contains proprietary and confidential information,
 including trade secrets, belonging to Gaussian, Inc.
  
 This software is provided under written license and may be
 used, copied, transmitted, or stored only in accord with that
 written license.
  
 The following legend is applicable only to US Government
 contracts under FAR:
  
                    RESTRICTED RIGHTS LEGEND
  
 Use, reproduction and disclosure by the US Government is
 subject to restrictions as set forth in subparagraphs (a)
 and (c) of the Commercial Computer Software - Restricted
 Rights clause in FAR 52.227-19.
  
 Gaussian, Inc.
 340 Quinnipiac St., Bldg. 40, Wallingford CT 06492
  
  
 ---------------------------------------------------------------
 Warning -- This program may not be used in any manner that
 competes with the business of Gaussian, Inc. or will provide
 assistance to any competitor of Gaussian, Inc.  The licensee
 of this program is prohibited from giving any competitor of
 Gaussian, Inc. access to this program.  By using this program,
 the user acknowledges that Gaussian, Inc. is engaged in the
 business of creating and licensing software in the field of
 computational chemistry and represents and warrants to the
 licensee that it is not a competitor of Gaussian, Inc. and that
 it will not use this program in any manner prohibited above.
 ---------------------------------------------------------------
  

 Cite this work as:
 Gaussian 09, Revision D.01,
 M. J. Frisch, G. W. Trucks, H. B. Schlegel, G. E. Scuseria, 
 M. A. Robb, J. R. Cheeseman, G. Scalmani, V. Barone, B. Mennucci, 
 G. A. Petersson, H. Nakatsuji, M. Caricato, X. Li, H. P. Hratchian, 
 A. F. Izmaylov, J. Bloino, G. Zheng, J. L. Sonnenberg, M. Hada, 
 M. Ehara, K. Toyota, R. Fukuda, J. Hasegawa, M. Ishida, T. Nakajima, 
 Y. Honda, O. Kitao, H. Nakai, T. Vreven, J. A. Montgomery, Jr., 
 J. E. Peralta, F. Ogliaro, M. Bearpark, J. J. Heyd, E. Brothers, 
 K. N. Kudin, V. N. Staroverov, T. Keith, R. Kobayashi, J. Normand, 
 K. Raghavachari, A. Rendell, J. C. Burant, S. S. Iyengar, J. Tomasi, 
 M. Cossi, N. Rega, J. M. Millam, M. Klene, J. E. Knox, J. B. Cross, 
 V. Bakken, C. Adamo, J. Jaramillo, R. Gomperts, R. E. Stratmann, 
 O. Yazyev, A. J. Austin, R. Cammi, C. Pomelli, J. W. Ochterski, 
 R. L. Martin, K. Morokuma, V. G. Zakrzewski, G. A. Voth, 
 P. Salvador, J. J. Dannenberg, S. Dapprich, A. D. Daniels, 
 O. Farkas, J. B. Foresman, J. V. Ortiz, J. Cioslowski, 
 and D. J. Fox, Gaussian, Inc., Wallingford CT, 2013.
 
 ******************************************
 Gaussian 09:  ES64L-G09RevD.01 24-Apr-2013
                15-Jun-2021 
 ******************************************
 -------------------
 #N B3LYP/STO-3G OPT
 -------------------
 1/14=-1,18=20,19=15,26=3,38=1/1,3;
 2/9=110,12=2,17=6,18=5,40=1/2;
 3/6=3,11=2,16=1,25=1,30=1,71=1,74=-5/1,2,3;
 4//1;
 5/5=2,38=5/2;
 6/7=2,8=2,9=2,10=2,28=1/1;
 7//1,2,3,16;
 1/14=-1,18=20,19=15,26=3/3(2);
 2/9=110/2;
 99//99;
 2/9=110/2;
 3/6=3,11=2,16=1,25=1,30=1,71=1,74=-5/1,2,3;
 4/5=5,16=3,69=1/1;
 5/5=2,38=5/2;
 7//1,2,3,16;
 1/14=-1,18=20,19=15,26=3/3(-5);
 2/9=110/2;
 6/7=2,8=2,9=2,10=2,19=2,28=1/1;
 99/9=1/99;
 -----
 1Naph
 -----
 Symbolic Z-matrix:
 Charge = -1 Multiplicity = 1
 N                     6.85156   1.52143   2.43394 
 C                     6.41936   1.21228   1.40077 
 C                     5.65243   0.73411   0.24856 
 C                     6.29201   0.32851  -0.91325 
 C                     5.53419  -0.81316  -1.22746 
 C                     4.12975  -0.89559  -1.20072 
 C                     3.3978   -0.0511   -0.39005 
 C                     4.17281   0.63603   0.53949 
 C                     3.41818   1.13712   1.64598 
 C                     2.02917   1.35516   1.54968 
 C                     1.28749   0.7477    0.54623 
 C                     1.97004  -0.01013  -0.40198 
 N                     0.60216  -1.44707  -2.08371 
 C                     1.21224  -0.78072  -1.35935 
 H                     6.76621  -0.00139  -1.84809 
 H                     6.06698  -1.6611   -0.74724 
 H                     3.88745   1.37188   2.60536 
 H                     1.53164   2.01136   2.26141 
 H                     0.19863   0.83041   0.53713 
 

 GradGradGradGradGradGradGradGradGradGradGradGradGradGradGradGradGradGrad
 Berny optimization.
 Initialization pass.
                           ----------------------------
                           !    Initial Parameters    !
                           ! (Angstroms and Degrees)  !
 --------------------------                            --------------------------
 ! Name  Definition              Value          Derivative Info.                !
 --------------------------------------------------------------------------------
 ! R1    R(1,2)                  1.1618         estimate D2E/DX2                !
 ! R2    R(2,3)                  1.4644         estimate D2E/DX2                !
 ! R3    R(3,4)                  1.3869         estimate D2E/DX2                !
 ! R4    R(3,8)                  1.5111         estimate D2E/DX2                !
 ! R5    R(4,5)                  1.4059         estimate D2E/DX2                !
 ! R6    R(4,15)                 1.0989         estimate D2E/DX2                !
 ! R7    R(5,6)                  1.4071         estimate D2E/DX2                !
 ! R8    R(5,16)                 1.1106         estimate D2E/DX2                !
 ! R9    R(6,7)                  1.3806         estimate D2E/DX2                !
 ! R10   R(7,8)                  1.3917         estimate D2E/DX2                !
 ! R11   R(7,12)                 1.4284         estimate D2E/DX2                !
 ! R12   R(8,9)                  1.43           estimate D2E/DX2                !
 ! R13   R(9,10)                 1.4093         estimate D2E/DX2                !
 ! R14   R(9,17)                 1.0935         estimate D2E/DX2                !
 ! R15   R(10,11)                1.3878         estimate D2E/DX2                !
 ! R16   R(10,18)                1.0884         estimate D2E/DX2                !
 ! R17   R(11,12)                1.3926         estimate D2E/DX2                !
 ! R18   R(11,19)                1.092          estimate D2E/DX2                !
 ! R19   R(12,14)                1.4438         estimate D2E/DX2                !
 ! R20   R(13,14)                1.158          estimate D2E/DX2                !
 ! A1    A(2,3,4)              120.8716         estimate D2E/DX2                !
 ! A2    A(2,3,8)              112.4893         estimate D2E/DX2                !
 ! A3    A(4,3,8)              126.431          estimate D2E/DX2                !
 ! A4    A(3,4,5)              100.1451         estimate D2E/DX2                !
 ! A5    A(5,4,15)              78.3862         estimate D2E/DX2                !
 ! A6    A(4,5,6)              125.5454         estimate D2E/DX2                !
 ! A7    A(4,5,16)             105.3538         estimate D2E/DX2                !
 ! A8    A(6,5,16)             115.2057         estimate D2E/DX2                !
 ! A9    A(5,6,7)              120.2969         estimate D2E/DX2                !
 ! A10   A(6,7,8)              113.5129         estimate D2E/DX2                !
 ! A11   A(6,7,12)             122.8585         estimate D2E/DX2                !
 ! A12   A(8,7,12)             123.2332         estimate D2E/DX2                !
 ! A13   A(3,8,7)              116.6616         estimate D2E/DX2                !
 ! A14   A(3,8,9)              130.0111         estimate D2E/DX2                !
 ! A15   A(7,8,9)              113.3254         estimate D2E/DX2                !
 ! A16   A(8,9,10)             121.4299         estimate D2E/DX2                !
 ! A17   A(8,9,17)             121.8456         estimate D2E/DX2                !
 ! A18   A(10,9,17)            116.7244         estimate D2E/DX2                !
 ! A19   A(9,10,11)            120.5582         estimate D2E/DX2                !
 ! A20   A(9,10,18)            119.9413         estimate D2E/DX2                !
 ! A21   A(11,10,18)           119.4986         estimate D2E/DX2                !
 ! A22   A(10,11,12)           117.9423         estimate D2E/DX2                !
 ! A23   A(10,11,19)           120.3808         estimate D2E/DX2                !
 ! A24   A(12,11,19)           121.6178         estimate D2E/DX2                !
 ! A25   A(7,12,11)            119.9892         estimate D2E/DX2                !
 ! A26   A(7,12,14)            120.9876         estimate D2E/DX2                !
 ! A27   A(11,12,14)           118.9918         estimate D2E/DX2                !
 ! A28   L(1,2,3,17,-1)        169.8248         estimate D2E/DX2                !
 ! A29   L(3,4,15,5,-1)        178.5313         estimate D2E/DX2                !
 ! A30   L(12,14,13,16,-1)     179.3364         estimate D2E/DX2                !
 ! A31   L(1,2,3,17,-2)        184.3501         estimate D2E/DX2                !
 ! A32   L(3,4,15,5,-2)        178.7616         estimate D2E/DX2                !
 ! A33   L(12,14,13,16,-2)     176.3763         estimate D2E/DX2                !
 ! D1    D(2,3,4,5)            138.5168         estimate D2E/DX2                !
 ! D2    D(8,3,4,5)            -35.8338         estimate D2E/DX2                !
 ! D3    D(2,3,8,7)           -167.7022         estimate D2E/DX2                !
 ! D4    D(2,3,8,9)             11.768          estimate D2E/DX2                !
 ! D5    D(4,3,8,7)              7.0508         estimate D2E/DX2                !
 ! D6    D(4,3,8,9)           -173.4789         estimate D2E/DX2                !
 ! D7    D(3,4,5,6)             45.4899         estimate D2E/DX2                !
 ! D8    D(3,4,5,16)           -92.1529         estimate D2E/DX2                !
 ! D9    D(15,4,5,6)          -133.2717         estimate D2E/DX2                !
 ! D10   D(15,4,5,16)           89.0855         estimate D2E/DX2                !
 ! D11   D(4,5,6,7)            -25.2387         estimate D2E/DX2                !
 ! D12   D(16,5,6,7)           108.8654         estimate D2E/DX2                !
 ! D13   D(5,6,7,8)            -12.3812         estimate D2E/DX2                !
 ! D14   D(5,6,7,12)           174.6298         estimate D2E/DX2                !
 ! D15   D(6,7,8,3)             19.7078         estimate D2E/DX2                !
 ! D16   D(6,7,8,9)           -159.8504         estimate D2E/DX2                !
 ! D17   D(12,7,8,3)          -167.3333         estimate D2E/DX2                !
 ! D18   D(12,7,8,9)            13.1086         estimate D2E/DX2                !
 ! D19   D(6,7,12,11)          172.5048         estimate D2E/DX2                !
 ! D20   D(6,7,12,14)           -5.434          estimate D2E/DX2                !
 ! D21   D(8,7,12,11)            0.1946         estimate D2E/DX2                !
 ! D22   D(8,7,12,14)         -177.7442         estimate D2E/DX2                !
 ! D23   D(3,8,9,10)           158.1464         estimate D2E/DX2                !
 ! D24   D(3,8,9,17)           -21.7159         estimate D2E/DX2                !
 ! D25   D(7,8,9,10)           -22.3691         estimate D2E/DX2                !
 ! D26   D(7,8,9,17)           157.7685         estimate D2E/DX2                !
 ! D27   D(8,9,10,11)           18.709          estimate D2E/DX2                !
 ! D28   D(8,9,10,18)         -160.7806         estimate D2E/DX2                !
 ! D29   D(17,9,10,11)        -161.422          estimate D2E/DX2                !
 ! D30   D(17,9,10,18)          19.0885         estimate D2E/DX2                !
 ! D31   D(9,10,11,12)          -3.8892         estimate D2E/DX2                !
 ! D32   D(9,10,11,19)         173.3622         estimate D2E/DX2                !
 ! D33   D(18,10,11,12)        175.6026         estimate D2E/DX2                !
 ! D34   D(18,10,11,19)         -7.146          estimate D2E/DX2                !
 ! D35   D(10,11,12,7)          -5.2921         estimate D2E/DX2                !
 ! D36   D(10,11,12,14)        172.6877         estimate D2E/DX2                !
 ! D37   D(19,11,12,7)         177.4925         estimate D2E/DX2                !
 ! D38   D(19,11,12,14)         -4.5277         estimate D2E/DX2                !
 --------------------------------------------------------------------------------
 Trust Radius=3.00D-01 FncErr=1.00D-07 GrdErr=1.00D-06
 Number of steps in this run=    101 maximum allowed number of steps=    114.
 GradGradGradGradGradGradGradGradGradGradGradGradGradGradGradGradGradGrad

                          Input orientation:                          
 ---------------------------------------------------------------------
 Center     Atomic      Atomic             Coordinates (Angstroms)
 Number     Number       Type             X           Y           Z
 ---------------------------------------------------------------------
      1          7           0        6.851560    1.521430    2.433940
      2          6           0        6.419360    1.212280    1.400770
      3          6           0        5.652430    0.734110    0.248560
      4          6           0        6.292010    0.328510   -0.913250
      5          6           0        5.534190   -0.813160   -1.227460
      6          6           0        4.129750   -0.895590   -1.200720
      7          6           0        3.397800   -0.051100   -0.390050
      8          6           0        4.172810    0.636030    0.539490
      9          6           0        3.418180    1.137120    1.645980
     10          6           0        2.029170    1.355160    1.549680
     11          6           0        1.287490    0.747700    0.546230
     12          6           0        1.970040   -0.010130   -0.401980
     13          7           0        0.602160   -1.447070   -2.083710
     14          6           0        1.212240   -0.780720   -1.359350
     15          1           0        6.766210   -0.001390   -1.848090
     16          1           0        6.066980   -1.661100   -0.747240
     17          1           0        3.887450    1.371880    2.605360
     18          1           0        1.531640    2.011360    2.261410
     19          1           0        0.198630    0.830410    0.537130
 ---------------------------------------------------------------------
                    Distance matrix (angstroms):
                    1          2          3          4          5
     1  N    0.000000
     2  C    1.161814   0.000000
     3  C    2.614129   1.464382   0.000000
     4  C    3.597198   2.480314   1.386858   0.000000
     5  C    4.537799   3.434170   2.141649   1.405855   0.000000
     6  C    5.144025   4.056252   2.659866   2.501285   1.407111
     7  C    4.730352   3.732692   2.471383   2.965517   2.417882
     8  C    3.398320   2.474036   1.511137   2.587669   2.660004
     9  C    3.543540   3.012119   2.665909   3.932227   4.066663
    10  C    4.905610   4.395038   3.899568   5.029099   4.969837
    11  C    5.926296   5.223233   4.375099   5.229821   4.859704
    12  C    5.849560   4.953851   3.812754   4.365260   3.745589
    13  N    8.262939   7.283787   5.975137   6.074295   5.045783
    14  C    7.175714   6.221287   4.959372   5.218569   4.324084
    15  H    4.545552   3.485454   2.485439   1.098920   1.600633
    16  H    4.567709   3.604779   2.626880   2.009165   1.110621
    17  H    2.972827   2.808394   3.012708   4.387613   4.709210
    18  H    5.345217   5.026832   4.760656   5.964191   6.014194
    19  H    6.952473   6.291993   5.462278   6.283692   5.855194
                    6          7          8          9         10
     6  C    0.000000
     7  C    1.380616   0.000000
     8  C    2.318630   1.391701   0.000000
     9  C    3.569586   2.357478   1.429992   0.000000
    10  C    4.128318   2.759215   2.476454   1.409313   0.000000
    11  C    3.718962   2.442972   2.887488   2.429185   1.387807
    12  C    2.467057   1.428398   2.481146   2.758157   2.382539
    13  N    3.678001   3.554268   4.895919   5.340280   4.805244
    14  C    2.924076   2.499712   3.791800   4.192409   3.700245
    15  H    2.858252   3.670768   3.582257   4.971321   5.985367
    16  H    2.131786   3.137548   3.243510   4.535822   5.538734
    17  H    4.436933   3.352180   2.211498   1.093497   2.137275
    18  H    5.214104   3.842725   3.439814   2.168429   1.088437
    19  H    4.631728   3.445491   3.978931   3.418936   2.156733
                   11         12         13         14         15
    11  C    0.000000
    12  C    1.392581   0.000000
    13  N    3.493319   2.600790   0.000000
    14  C    2.443965   1.443824   1.157980   0.000000
    15  H    6.025801   5.009447   6.335694   5.629636   0.000000
    16  H    5.506261   4.430556   5.629939   4.971745   2.110789
    17  H    3.374820   3.824985   6.381770   5.244937   5.477805
    18  H    2.144362   3.372279   5.630696   4.583408   6.952688
    19  H    1.092035   2.174012   3.495505   2.686965   7.036638
                   16         17         18         19
    16  H    0.000000
    17  H    5.018889   0.000000
    18  H    6.565687   2.465173   0.000000
    19  H    6.503442   4.263585   2.478851   0.000000
 Stoichiometry    C12H5N2(1-)
 Framework group  C1[X(C12H5N2)]
 Deg. of freedom    51
 Full point group                 C1      NOp   1
 Largest Abelian subgroup         C1      NOp   1
 Largest concise Abelian subgroup C1      NOp   1
                         Standard orientation:                         
 ---------------------------------------------------------------------
 Center     Atomic      Atomic             Coordinates (Angstroms)
 Number     Number       Type             X           Y           Z
 ---------------------------------------------------------------------
      1          7           0        3.913725    1.049110    0.327226
      2          6           0        3.082087    0.307675   -0.002112
      3          6           0        1.863990   -0.461999   -0.263375
      4          6           0        1.927786   -1.813476   -0.568033
      5          6           0        0.843579   -2.289593    0.189752
      6          6           0       -0.432933   -1.700752    0.250947
      7          6           0       -0.591566   -0.353572   -0.006039
      8          6           0        0.608739    0.349831   -0.042439
      9          6           0        0.446206    1.757417    0.150334
     10          6           0       -0.783086    2.397172   -0.106020
     11          6           0       -1.959065    1.663606   -0.176481
     12          6           0       -1.871223    0.277954   -0.069081
     13          7           0       -4.061367   -1.106203    0.157823
     14          6           0       -3.087102   -0.495432    0.021134
     15          1           0        1.941802   -2.885136   -0.810878
     16          1           0        1.276194   -2.583810    1.169425
     17          1           0        1.266297    2.390298    0.500547
     18          1           0       -0.813418    3.474410   -0.258772
     19          1           0       -2.921853    2.170903   -0.267189
 ---------------------------------------------------------------------
 Rotational constants (GHZ):      1.3741641      0.5583440      0.4040292
 Standard basis: STO-3G (5D, 7F)
 There are    75 symmetry adapted cartesian basis functions of A   symmetry.
 There are    75 symmetry adapted basis functions of A   symmetry.
    75 basis functions,   225 primitive gaussians,    75 cartesian basis functions
    46 alpha electrons       46 beta electrons
       nuclear repulsion energy       716.0060743574 Hartrees.
 NAtoms=   19 NActive=   19 NUniq=   19 SFac= 1.00D+00 NAtFMM=   60 NAOKFM=F Big=F
 Integral buffers will be    131072 words long.
 Raffenetti 2 integral format.
 Two-electron integral symmetry is turned on.
 One-electron integrals computed using PRISM.
 NBasis=    75 RedAO= T EigKep=  1.54D-01  NBF=    75
 NBsUse=    75 1.00D-06 EigRej= -1.00D+00 NBFU=    75
 ExpMin= 1.69D-01 ExpMax= 9.91D+01 ExpMxC= 9.91D+01 IAcc=1 IRadAn=         1 AccDes= 0.00D+00
 Harris functional with IExCor=  402 and IRadAn=       1 diagonalized for initial guess.
 HarFok:  IExCor=  402 AccDes= 0.00D+00 IRadAn=         1 IDoV= 1 UseB2=F ITyADJ=14
 ICtDFT=  3500011 ScaDFX=  1.000000  1.000000  1.000000  1.000000
 FoFCou: FMM=F IPFlag=           0 FMFlag=      100000 FMFlg1=           0
         NFxFlg=           0 DoJE=T BraDBF=F KetDBF=T FulRan=T
         wScrn=  0.000000 ICntrl=     500 IOpCl=  0 I1Cent=   200000004 NGrid=           0
         NMat0=    1 NMatS0=      1 NMatT0=    0 NMatD0=    1 NMtDS0=    0 NMtDT0=    0
 Petite list used in FoFCou.
 Keep R1 ints in memory in canonical form, NReq=4993994.
 Requested convergence on RMS density matrix=1.00D-08 within 128 cycles.
 Requested convergence on MAX density matrix=1.00D-06.
 Requested convergence on             energy=1.00D-06.
 No special actions if energy rises.
 Integral accuracy reduced to 1.0D-05 until final iterations.
 EnCoef did     3 forward-backward iterations
 Initial convergence to 1.0D-05 achieved.  Increase integral accuracy.
 SCF Done:  E(RB3LYP) =  -562.259131663     A.U. after   21 cycles
            NFock= 21  Conv=0.67D-08     -V/T= 2.0121

 **********************************************************************

            Population analysis using the SCF density.

 **********************************************************************

 Orbital symmetries:
       Occupied  (A) (A) (A) (A) (A) (A) (A) (A) (A) (A) (A) (A)
                 (A) (A) (A) (A) (A) (A) (A) (A) (A) (A) (A) (A)
                 (A) (A) (A) (A) (A) (A) (A) (A) (A) (A) (A) (A)
                 (A) (A) (A) (A) (A) (A) (A) (A) (A) (A)
       Virtual   (A) (A) (A) (A) (A) (A) (A) (A) (A) (A) (A) (A)
                 (A) (A) (A) (A) (A) (A) (A) (A) (A) (A) (A) (A)
                 (A) (A) (A) (A) (A)
 The electronic state is 1-A.
 Alpha  occ. eigenvalues --  -13.96199 -13.95979  -9.88867  -9.87254  -9.86973
 Alpha  occ. eigenvalues --   -9.86829  -9.85973  -9.85640  -9.84472  -9.84041
 Alpha  occ. eigenvalues --   -9.82815  -9.82470  -9.78310  -9.70279  -0.71853
 Alpha  occ. eigenvalues --   -0.71764  -0.66948  -0.63471  -0.56472  -0.55626
 Alpha  occ. eigenvalues --   -0.51127  -0.45141  -0.41142  -0.38907  -0.33872
 Alpha  occ. eigenvalues --   -0.32289  -0.30726  -0.26041  -0.25333  -0.24225
 Alpha  occ. eigenvalues --   -0.21076  -0.19115  -0.17293  -0.16706  -0.15865
 Alpha  occ. eigenvalues --   -0.13963  -0.13158  -0.12953  -0.12266  -0.11770
 Alpha  occ. eigenvalues --   -0.11226  -0.06588  -0.03766  -0.00228   0.04421
 Alpha  occ. eigenvalues --    0.10389
 Alpha virt. eigenvalues --    0.17968   0.21575   0.24344   0.29102   0.30158
 Alpha virt. eigenvalues --    0.31020   0.33104   0.36420   0.39785   0.44592
 Alpha virt. eigenvalues --    0.48178   0.52031   0.54588   0.56836   0.58981
 Alpha virt. eigenvalues --    0.62377   0.65247   0.66988   0.71736   0.73322
 Alpha virt. eigenvalues --    0.74238   0.76776   0.84146   0.87931   0.90456
 Alpha virt. eigenvalues --    0.96442   0.97564   1.13917   1.17112
          Condensed to atoms (all electrons):
               1          2          3          4          5          6
     1  N    6.605993   0.681470  -0.011738   0.000120  -0.000007  -0.000001
     2  C    0.681470   4.933686   0.403712  -0.034061   0.002072   0.000252
     3  C   -0.011738   0.403712   4.795414   0.512649  -0.050708  -0.017726
     4  C    0.000120  -0.034061   0.512649   5.072966   0.337835  -0.017935
     5  C   -0.000007   0.002072  -0.050708   0.337835   5.086701   0.502559
     6  C   -0.000001   0.000252  -0.017726  -0.017935   0.502559   5.304192
     7  C    0.000001   0.000841  -0.031989  -0.005235  -0.032108   0.496644
     8  C   -0.000576  -0.032174   0.443726  -0.024027  -0.023545  -0.041422
     9  C   -0.000258  -0.002639  -0.018919   0.000335   0.000195   0.001189
    10  C    0.000001   0.000005   0.000442  -0.000001  -0.000003   0.000089
    11  C    0.000000   0.000000   0.000016   0.000001  -0.000013   0.000866
    12  C    0.000000  -0.000004   0.000760  -0.000015   0.001301  -0.036875
    13  N    0.000000   0.000000   0.000000   0.000000   0.000000  -0.000069
    14  C    0.000000   0.000000  -0.000005   0.000000   0.000012  -0.002265
    15  H    0.000002  -0.000238  -0.009463   0.369993  -0.052143   0.002125
    16  H    0.000006  -0.000176  -0.004279  -0.048613   0.377783  -0.036428
    17  H    0.000157   0.000451  -0.001734   0.000006  -0.000009  -0.000033
    18  H    0.000000   0.000000  -0.000011   0.000000   0.000000   0.000000
    19  H    0.000000   0.000000   0.000000   0.000000   0.000000  -0.000021
               7          8          9         10         11         12
     1  N    0.000001  -0.000576  -0.000258   0.000001   0.000000   0.000000
     2  C    0.000841  -0.032174  -0.002639   0.000005   0.000000  -0.000004
     3  C   -0.031989   0.443726  -0.018919   0.000442   0.000016   0.000760
     4  C   -0.005235  -0.024027   0.000335  -0.000001   0.000001  -0.000015
     5  C   -0.032108  -0.023545   0.000195  -0.000003  -0.000013   0.001301
     6  C    0.496644  -0.041422   0.001189   0.000089   0.000866  -0.036875
     7  C    4.828270   0.448914  -0.035709  -0.011418  -0.029890   0.449632
     8  C    0.448914   4.861665   0.480203  -0.028607  -0.007527  -0.026241
     9  C   -0.035709   0.480203   4.836439   0.505951  -0.029394  -0.012868
    10  C   -0.011418  -0.028607   0.505951   4.860182   0.492847  -0.035090
    11  C   -0.029890  -0.007527  -0.029394   0.492847   4.825038   0.511498
    12  C    0.449632  -0.026241  -0.012868  -0.035090   0.511498   4.787836
    13  N   -0.000070  -0.000002   0.000000  -0.000001  -0.000194  -0.011451
    14  C   -0.027815   0.000889   0.000016   0.001100  -0.032896   0.427567
    15  H    0.000055   0.000840  -0.000006   0.000000   0.000000   0.000003
    16  H    0.002158   0.000533   0.000026   0.000000   0.000000   0.000008
    17  H    0.001704  -0.024055   0.381897  -0.028208   0.001525   0.000062
    18  H    0.000054   0.001202  -0.025399   0.390875  -0.027470   0.001602
    19  H    0.001303   0.000004   0.001456  -0.025655   0.388798  -0.024440
              13         14         15         16         17         18
     1  N    0.000000   0.000000   0.000002   0.000006   0.000157   0.000000
     2  C    0.000000   0.000000  -0.000238  -0.000176   0.000451   0.000000
     3  C    0.000000  -0.000005  -0.009463  -0.004279  -0.001734  -0.000011
     4  C    0.000000   0.000000   0.369993  -0.048613   0.000006   0.000000
     5  C    0.000000   0.000012  -0.052143   0.377783  -0.000009   0.000000
     6  C   -0.000069  -0.002265   0.002125  -0.036428  -0.000033   0.000000
     7  C   -0.000070  -0.027815   0.000055   0.002158   0.001704   0.000054
     8  C   -0.000002   0.000889   0.000840   0.000533  -0.024055   0.001202
     9  C    0.000000   0.000016  -0.000006   0.000026   0.381897  -0.025399
    10  C   -0.000001   0.001100   0.000000   0.000000  -0.028208   0.390875
    11  C   -0.000194  -0.032896   0.000000   0.000000   0.001525  -0.027470
    12  C   -0.011451   0.427567   0.000003   0.000008   0.000062   0.001602
    13  N    6.592218   0.687271   0.000000   0.000000   0.000000   0.000000
    14  C    0.687271   4.886725   0.000000  -0.000002   0.000001  -0.000024
    15  H    0.000000   0.000000   0.556737  -0.005700   0.000000   0.000000
    16  H    0.000000  -0.000002  -0.005700   0.685306  -0.000002   0.000000
    17  H    0.000000   0.000001   0.000000  -0.000002   0.612037  -0.003984
    18  H    0.000000  -0.000024   0.000000   0.000000  -0.003984   0.621272
    19  H    0.000061  -0.003690   0.000000   0.000000  -0.000039  -0.003891
              19
     1  N    0.000000
     2  C    0.000000
     3  C    0.000000
     4  C    0.000000
     5  C    0.000000
     6  C   -0.000021
     7  C    0.001303
     8  C    0.000004
     9  C    0.001456
    10  C   -0.025655
    11  C    0.388798
    12  C   -0.024440
    13  N    0.000061
    14  C   -0.003690
    15  H    0.000000
    16  H    0.000000
    17  H   -0.000039
    18  H   -0.003891
    19  H    0.610397
 Mulliken charges:
               1
     1  N   -0.275168
     2  C    0.046803
     3  C   -0.010149
     4  C   -0.164017
     5  C   -0.149924
     6  C   -0.155143
     7  C   -0.055342
     8  C   -0.029799
     9  C   -0.082512
    10  C   -0.122508
    11  C   -0.093203
    12  C   -0.033283
    13  N   -0.267764
    14  C    0.063116
    15  H    0.137795
    16  H    0.029379
    17  H    0.060228
    18  H    0.045774
    19  H    0.055718
 Sum of Mulliken charges =  -1.00000
 Mulliken charges with hydrogens summed into heavy atoms:
               1
     1  N   -0.275168
     2  C    0.046803
     3  C   -0.010149
     4  C   -0.026222
     5  C   -0.120545
     6  C   -0.155143
     7  C   -0.055342
     8  C   -0.029799
     9  C   -0.022285
    10  C   -0.076734
    11  C   -0.037486
    12  C   -0.033283
    13  N   -0.267764
    14  C    0.063116
 Electronic spatial extent (au):  <R**2>=           2559.3023
 Charge=             -1.0000 electrons
 Dipole moment (field-independent basis, Debye):
    X=              0.6292    Y=              1.5963    Z=             -1.1644  Tot=              2.0736
 Quadrupole moment (field-independent basis, Debye-Ang):
   XX=           -120.4978   YY=            -83.0313   ZZ=            -74.7357
   XY=            -15.1215   XZ=              0.1358   YZ=              1.7794
 Traceless Quadrupole moment (field-independent basis, Debye-Ang):
   XX=            -27.7429   YY=              9.7237   ZZ=             18.0192
   XY=            -15.1215   XZ=              0.1358   YZ=              1.7794
 Octapole moment (field-independent basis, Debye-Ang**2):
  XXX=              2.9422  YYY=              6.9834  ZZZ=              1.7616  XYY=              7.2551
  XXY=              7.1326  XXZ=            -13.4798  XZZ=             -0.5955  YZZ=             -0.9717
  YYZ=             -7.2040  XYZ=             -5.0177
 Hexadecapole moment (field-independent basis, Debye-Ang**3):
 XXXX=          -3035.0329 YYYY=          -1005.6347 ZZZZ=            -91.0697 XXXY=           -266.4860
 XXXZ=            -12.1575 YYYX=            -28.6736 YYYZ=             17.5647 ZZZX=              3.2831
 ZZZY=              0.6245 XXYY=           -602.8212 XXZZ=           -380.3833 YYZZ=           -185.4125
 XXYZ=             -8.6333 YYXZ=              0.2539 ZZXY=              5.0877
 N-N= 7.160060743574D+02 E-N=-2.755110553231D+03  KE= 5.555277592483D+02
 Calling FoFJK, ICntrl=      2127 FMM=F ISym2X=0 I1Cent= 0 IOpClX= 0 NMat=1 NMatS=1 NMatT=0.
 ***** Axes restored to original set *****
 -------------------------------------------------------------------
 Center     Atomic                   Forces (Hartrees/Bohr)
 Number     Number              X              Y              Z
 -------------------------------------------------------------------
      1        7           0.047004063    0.025266322    0.090552494
      2        6          -0.049563464   -0.003842131   -0.088187588
      3        6           0.006352443    0.058041681    0.054399786
      4        6          -0.016889534    0.002116786   -0.022020849
      5        6          -0.128818899   -0.109631449    0.011034691
      6        6           0.048368390   -0.030308778   -0.005568448
      7        6          -0.008175959   -0.024510494   -0.084894705
      8        6           0.036231420    0.015480533    0.054920436
      9        6           0.013932587    0.009714242    0.006762198
     10        6           0.018108792    0.006684156    0.021843970
     11        6          -0.010970985   -0.004725768   -0.017070673
     12        6          -0.032397782    0.011081164    0.001530314
     13        7          -0.061397851   -0.063416537   -0.071709318
     14        6           0.058568539    0.056948150    0.062434766
     15        1           0.073579875    0.062366582    0.014478320
     16        1           0.003669302   -0.022473168   -0.037845329
     17        1           0.009008057    0.014599889   -0.000019652
     18        1          -0.002157296   -0.003844361    0.011574932
     19        1          -0.004451697    0.000453181   -0.002215345
 -------------------------------------------------------------------
 Cartesian Forces:  Max     0.128818899 RMS     0.044157048

 GradGradGradGradGradGradGradGradGradGradGradGradGradGradGradGradGradGrad
 Berny optimization.
 FormGI is forming the generalized inverse of G from B-inverse, IUseBI=4.
 Internal  Forces:  Max     0.154598371 RMS     0.032745777
 Search for a local minimum.
 Step number   1 out of a maximum of  101
 All quantities printed in internal units (Hartrees-Bohrs-Radians)
 Mixed Optimization -- RFO/linear search
 Second derivative matrix not updated -- first step.
 ITU=  0
     Eigenvalues ---    0.01135   0.01237   0.01237   0.01312   0.01514
     Eigenvalues ---    0.01562   0.01815   0.01929   0.02001   0.02073
     Eigenvalues ---    0.02108   0.02149   0.02199   0.02222   0.02517
     Eigenvalues ---    0.04001   0.04893   0.04893   0.07557   0.14142
     Eigenvalues ---    0.15980   0.15999   0.16000   0.21108   0.21528
     Eigenvalues ---    0.22887   0.23270   0.24517   0.24798   0.24950
     Eigenvalues ---    0.24984   0.30465   0.32534   0.33802   0.34412
     Eigenvalues ---    0.34579   0.34994   0.36421   0.38549   0.39066
     Eigenvalues ---    0.39217   0.41132   0.42898   0.43313   0.44071
     Eigenvalues ---    0.45689   0.46510   0.47263   0.48305   1.26614
     Eigenvalues ---    1.29125
 RFO step:  Lambda=-1.96854900D-01 EMin= 1.13530388D-02
 Linear search not attempted -- first point.
 Maximum step size (   0.300) exceeded in Quadratic search.
    -- Step size scaled by   0.440
 Iteration  1 RMS(Cart)=  0.05701081 RMS(Int)=  0.00329957
 Iteration  2 RMS(Cart)=  0.00342567 RMS(Int)=  0.00011355
 Iteration  3 RMS(Cart)=  0.00000701 RMS(Int)=  0.00011342
 Iteration  4 RMS(Cart)=  0.00000000 RMS(Int)=  0.00011342
 Variable       Old X    -DE/DX   Delta X   Delta X   Delta X     New X
                                 (Linear)    (Quad)   (Total)
    R1        2.19551   0.10473   0.00000   0.03149   0.03149   2.22700
    R2        2.76728   0.00753   0.00000   0.00590   0.00590   2.77318
    R3        2.62078   0.03255   0.00000   0.01809   0.01796   2.63874
    R4        2.85564  -0.02908   0.00000  -0.02588  -0.02602   2.82962
    R5        2.65668   0.15460   0.00000   0.10497   0.10505   2.76173
    R6        2.07666   0.00071   0.00000   0.00059   0.00059   2.07724
    R7        2.65905  -0.03845   0.00000  -0.02649  -0.02638   2.63268
    R8        2.09877   0.00257   0.00000   0.00217   0.00217   2.10094
    R9        2.60899   0.03144   0.00000   0.02206   0.02215   2.63114
   R10        2.62993   0.09479   0.00000   0.06616   0.06622   2.69616
   R11        2.69928   0.03424   0.00000   0.02591   0.02605   2.72533
   R12        2.70229  -0.00499   0.00000  -0.00357  -0.00361   2.69869
   R13        2.66322  -0.00061   0.00000  -0.00163  -0.00178   2.66143
   R14        2.06641   0.00702   0.00000   0.00571   0.00571   2.07212
   R15        2.62258   0.04198   0.00000   0.02630   0.02622   2.64880
   R16        2.05685   0.00624   0.00000   0.00502   0.00502   2.06186
   R17        2.63160   0.01682   0.00000   0.01116   0.01123   2.64283
   R18        2.06365   0.00449   0.00000   0.00364   0.00364   2.06729
   R19        2.72843   0.01110   0.00000   0.00831   0.00831   2.73674
   R20        2.18826   0.11370   0.00000   0.03360   0.03360   2.22187
    A1        2.10961   0.01114   0.00000   0.01479   0.01482   2.12443
    A2        1.96331   0.01438   0.00000   0.01818   0.01822   1.98153
    A3        2.20664  -0.02478   0.00000  -0.03170  -0.03188   2.17476
    A4        1.74786   0.03571   0.00000   0.05106   0.05097   1.79883
    A5        1.36810   0.08146   0.00000   0.13883   0.13887   1.50697
    A6        2.19118  -0.02831   0.00000  -0.03340  -0.03322   2.15796
    A7        1.83877   0.03130   0.00000   0.04458   0.04464   1.88342
    A8        2.01072   0.00445   0.00000   0.00680   0.00687   2.01759
    A9        2.09958  -0.00724   0.00000  -0.00748  -0.00716   2.09242
   A10        1.98117   0.02375   0.00000   0.02594   0.02599   2.00716
   A11        2.14428   0.00937   0.00000   0.00579   0.00568   2.14997
   A12        2.15082  -0.03319   0.00000  -0.03161  -0.03153   2.11929
   A13        2.03613   0.00446   0.00000   0.00436   0.00428   2.04041
   A14        2.26912  -0.02947   0.00000  -0.03121  -0.03121   2.23791
   A15        1.97790   0.02507   0.00000   0.02696   0.02695   2.00485
   A16        2.11935  -0.00601   0.00000  -0.00628  -0.00643   2.11292
   A17        2.12661  -0.00113   0.00000  -0.00196  -0.00189   2.12472
   A18        2.03722   0.00714   0.00000   0.00824   0.00832   2.04554
   A19        2.10414   0.00581   0.00000   0.00339   0.00315   2.10728
   A20        2.09337  -0.00574   0.00000  -0.00520  -0.00509   2.08828
   A21        2.08564  -0.00009   0.00000   0.00177   0.00189   2.08753
   A22        2.05848   0.01368   0.00000   0.01365   0.01363   2.07211
   A23        2.10104  -0.00489   0.00000  -0.00442  -0.00441   2.09664
   A24        2.12263  -0.00874   0.00000  -0.00913  -0.00912   2.11351
   A25        2.09421  -0.00249   0.00000  -0.00003   0.00015   2.09436
   A26        2.11163  -0.00163   0.00000  -0.00284  -0.00294   2.10870
   A27        2.07680   0.00403   0.00000   0.00275   0.00267   2.07946
   A28        2.96400   0.01871   0.00000   0.03934   0.03934   3.00334
   A29        3.11596   0.11717   0.00000   0.18989   0.18984   3.30580
   A30        3.13001   0.00475   0.00000   0.00849   0.00849   3.13850
   A31        3.21752   0.00514   0.00000   0.01080   0.01080   3.22831
   A32        3.11998   0.00777   0.00000   0.01124   0.01127   3.13125
   A33        3.07835   0.00265   0.00000   0.00474   0.00474   3.08309
    D1        2.41758   0.01981   0.00000   0.03511   0.03506   2.45264
    D2       -0.62542   0.00887   0.00000   0.01674   0.01682  -0.60860
    D3       -2.92696  -0.01650   0.00000  -0.03700  -0.03688  -2.96383
    D4        0.20539  -0.00774   0.00000  -0.02018  -0.02034   0.18505
    D5        0.12306  -0.00628   0.00000  -0.01983  -0.01985   0.10321
    D6       -3.02778   0.00249   0.00000  -0.00301  -0.00331  -3.03109
    D7        0.79395   0.00050   0.00000  -0.00668  -0.00661   0.78734
    D8       -1.60837  -0.01601   0.00000  -0.03924  -0.03921  -1.64758
    D9       -2.32603  -0.00727   0.00000  -0.01792  -0.01788  -2.34391
   D10        1.55484  -0.02378   0.00000  -0.05048  -0.05048   1.50436
   D11       -0.44050   0.01135   0.00000   0.01616   0.01601  -0.42449
   D12        1.90006   0.03674   0.00000   0.06233   0.06232   1.96238
   D13       -0.21609   0.01061   0.00000   0.00854   0.00831  -0.20778
   D14        3.04786   0.01353   0.00000   0.00966   0.00931   3.05717
   D15        0.34397   0.00744   0.00000   0.00982   0.00996   0.35393
   D16       -2.78992   0.00040   0.00000  -0.00392  -0.00406  -2.79398
   D17       -2.92052   0.00794   0.00000   0.01172   0.01187  -2.90865
   D18        0.22879   0.00090   0.00000  -0.00202  -0.00215   0.22663
   D19        3.01078  -0.00366   0.00000  -0.00502  -0.00481   3.00596
   D20       -0.09484  -0.00101   0.00000  -0.00135  -0.00123  -0.09607
   D21        0.00340  -0.00479   0.00000  -0.00812  -0.00796  -0.00456
   D22       -3.10222  -0.00214   0.00000  -0.00445  -0.00438  -3.10660
   D23        2.76018  -0.00234   0.00000  -0.00082  -0.00059   2.75959
   D24       -0.37901  -0.00125   0.00000  -0.00031  -0.00017  -0.37918
   D25       -0.39042   0.00611   0.00000   0.01546   0.01557  -0.37484
   D26        2.75358   0.00721   0.00000   0.01598   0.01600   2.76958
   D27        0.32653  -0.01117   0.00000  -0.02180  -0.02179   0.30475
   D28       -2.80615  -0.00770   0.00000  -0.01623  -0.01625  -2.82240
   D29       -2.81734  -0.01222   0.00000  -0.02230  -0.02220  -2.83955
   D30        0.33316  -0.00875   0.00000  -0.01673  -0.01666   0.31649
   D31       -0.06788   0.00392   0.00000   0.00670   0.00669  -0.06118
   D32        3.02574   0.00503   0.00000   0.00888   0.00892   3.03466
   D33        3.06484   0.00045   0.00000   0.00112   0.00112   3.06597
   D34       -0.12472   0.00155   0.00000   0.00330   0.00335  -0.12137
   D35       -0.09236   0.00451   0.00000   0.00763   0.00768  -0.08468
   D36        3.01397   0.00180   0.00000   0.00392   0.00404   3.01801
   D37        3.09783   0.00328   0.00000   0.00527   0.00528   3.10311
   D38       -0.07902   0.00056   0.00000   0.00157   0.00165  -0.07738
         Item               Value     Threshold  Converged?
 Maximum Force            0.154598     0.000450     NO 
 RMS     Force            0.032746     0.000300     NO 
 Maximum Displacement     0.227809     0.001800     NO 
 RMS     Displacement     0.057345     0.001200     NO 
 Predicted change in Energy=-7.785999D-02
 GradGradGradGradGradGradGradGradGradGradGradGradGradGradGradGradGradGrad

                          Input orientation:                          
 ---------------------------------------------------------------------
 Center     Atomic      Atomic             Coordinates (Angstroms)
 Number     Number       Type             X           Y           Z
 ---------------------------------------------------------------------
      1          7           0        6.881958    1.606343    2.445265
      2          6           0        6.403628    1.267577    1.422895
      3          6           0        5.642529    0.738625    0.285128
      4          6           0        6.273465    0.308812   -0.884062
      5          6           0        5.513013   -0.884218   -1.250416
      6          6           0        4.121397   -0.947624   -1.234190
      7          6           0        3.397200   -0.087021   -0.413517
      8          6           0        4.173506    0.622297    0.550752
      9          6           0        3.431341    1.141858    1.654685
     10          6           0        2.042578    1.356139    1.560212
     11          6           0        1.290840    0.745977    0.546651
     12          6           0        1.956526   -0.021099   -0.414770
     13          7           0        0.539444   -1.437972   -2.107455
     14          6           0        1.179864   -0.780475   -1.372623
     15          1           0        6.871192    0.119161   -1.786869
     16          1           0        6.039104   -1.768020   -0.828340
     17          1           0        3.913600    1.392877    2.606929
     18          1           0        1.548188    2.015027    2.275702
     19          1           0        0.200727    0.837465    0.540723
 ---------------------------------------------------------------------
                    Distance matrix (angstroms):
                    1          2          3          4          5
     1  N    0.000000
     2  C    1.178475   0.000000
     3  C    2.637293   1.467506   0.000000
     4  C    3.624676   2.501644   1.396361   0.000000
     5  C    4.662077   3.545420   2.237921   1.461445   0.000000
     6  C    5.261353   4.144369   2.732326   2.516469   1.393154
     7  C    4.814942   3.774382   2.492248   2.941258   2.410930
     8  C    3.448658   2.480013   1.497370   2.562575   2.703344
     9  C    3.570368   2.983961   2.632040   3.900881   4.108278
    10  C    4.926005   4.364111   3.868696   4.997177   4.996273
    11  C    5.967041   5.213490   4.359547   5.202365   4.869674
    12  C    5.923534   4.981407   3.828009   4.354886   3.753914
    13  N    8.379893   7.360164   6.041813   6.117756   5.077159
    14  C    7.265470   6.268744   4.997118   5.231635   4.336113
    15  H    4.485843   3.440939   2.487272   1.099230   1.771780
    16  H    4.776319   3.796812   2.771345   2.090756   1.111767
    17  H    2.980411   2.760050   2.967827   4.350997   4.756300
    18  H    5.352092   4.986107   4.728130   5.934941   6.046401
    19  H    6.989801   6.280065   5.448698   6.260002   5.864533
                    6          7          8          9         10
     6  C    0.000000
     7  C    1.392337   0.000000
     8  C    2.377685   1.426744   0.000000
     9  C    3.631489   2.405986   1.428083   0.000000
    10  C    4.175823   2.795232   2.469492   1.408370   0.000000
    11  C    3.748565   2.460196   2.885321   2.442582   1.401682
    12  C    2.493304   1.442182   2.502237   2.794671   2.409303
    13  N    3.719330   3.586259   4.951482   5.401137   4.849561
    14  C    2.949529   2.513432   3.824792   4.234277   3.729734
    15  H    3.000810   3.741287   3.604876   4.972201   6.004047
    16  H    2.124938   3.158717   3.331061   4.629603   5.606939
    17  H    4.502813   3.402920   2.211156   1.096519   2.144223
    18  H    5.264793   3.881926   3.436196   2.166645   1.091092
    19  H    4.659240   3.461602   3.978614   3.430806   2.168132
                   11         12         13         14         15
    11  C    0.000000
    12  C    1.398526   0.000000
    13  N    3.518310   2.623134   0.000000
    14  C    2.454788   1.448219   1.175762   0.000000
    15  H    6.080999   5.104535   6.528282   5.776865   0.000000
    16  H    5.545881   4.459844   5.656087   4.988357   2.274335
    17  H    3.397367   3.867833   6.451670   5.294678   5.447492
    18  H    2.160170   3.398704   5.670346   4.610940   6.959394
    19  H    1.093961   2.175530   3.507875   2.690229   7.101321
                   16         17         18         19
    16  H    0.000000
    17  H    5.129338   0.000000
    18  H    6.641901   2.468189   0.000000
    19  H    6.538312   4.285221   2.492480   0.000000
 Stoichiometry    C12H5N2(1-)
 Framework group  C1[X(C12H5N2)]
 Deg. of freedom    51
 Full point group                 C1      NOp   1
 Largest Abelian subgroup         C1      NOp   1
 Largest concise Abelian subgroup C1      NOp   1
                         Standard orientation:                         
 ---------------------------------------------------------------------
 Center     Atomic      Atomic             Coordinates (Angstroms)
 Number     Number       Type             X           Y           Z
 ---------------------------------------------------------------------
      1          7           0        3.991532    1.010584    0.283376
      2          6           0        3.102548    0.301156   -0.025208
      3          6           0        1.868543   -0.461541   -0.246796
      4          6           0        1.892138   -1.824777   -0.548220
      5          6           0        0.762442   -2.351446    0.214818
      6          6           0       -0.490797   -1.744386    0.256624
      7          6           0       -0.609694   -0.380279    0.004280
      8          6           0        0.622812    0.337980   -0.020886
      9          6           0        0.500088    1.748179    0.168053
     10          6           0       -0.716930    2.411578   -0.081495
     11          6           0       -1.919031    1.695618   -0.165578
     12          6           0       -1.878649    0.300881   -0.070963
     13          7           0       -4.136435   -1.021657    0.113776
     14          6           0       -3.122467   -0.437602   -0.000962
     15          1           0        2.046904   -2.855834   -0.896467
     16          1           0        1.150259   -2.720336    1.189263
     17          1           0        1.343715    2.360021    0.509076
     18          1           0       -0.722640    3.493264   -0.224338
     19          1           0       -2.869943    2.228234   -0.259581
 ---------------------------------------------------------------------
 Rotational constants (GHZ):      1.3606269      0.5482734      0.3971992
 Standard basis: STO-3G (5D, 7F)
 There are    75 symmetry adapted cartesian basis functions of A   symmetry.
 There are    75 symmetry adapted basis functions of A   symmetry.
    75 basis functions,   225 primitive gaussians,    75 cartesian basis functions
    46 alpha electrons       46 beta electrons
       nuclear repulsion energy       710.1023654056 Hartrees.
 NAtoms=   19 NActive=   19 NUniq=   19 SFac= 1.00D+00 NAtFMM=   60 NAOKFM=F Big=F
 Integral buffers will be    131072 words long.
 Raffenetti 2 integral format.
 Two-electron integral symmetry is turned on.
 One-electron integrals computed using PRISM.
 NBasis=    75 RedAO= T EigKep=  1.63D-01  NBF=    75
 NBsUse=    75 1.00D-06 EigRej= -1.00D+00 NBFU=    75
 Initial guess from the checkpoint file:  "/tmp/bnp.472690.sequoia/Gau-15962.chk"
 B after Tr=     0.000000    0.000000    0.000000
         Rot=    0.999957   -0.001855    0.000525    0.009107 Ang=  -1.07 deg.
 ExpMin= 1.69D-01 ExpMax= 9.91D+01 ExpMxC= 9.91D+01 IAcc=1 IRadAn=         1 AccDes= 0.00D+00
 Harris functional with IExCor=  402 and IRadAn=       1 diagonalized for initial guess.
 HarFok:  IExCor=  402 AccDes= 0.00D+00 IRadAn=         1 IDoV= 1 UseB2=F ITyADJ=14
 ICtDFT=  3500011 ScaDFX=  1.000000  1.000000  1.000000  1.000000
 FoFCou: FMM=F IPFlag=           0 FMFlag=      100000 FMFlg1=           0
         NFxFlg=           0 DoJE=T BraDBF=F KetDBF=T FulRan=T
         wScrn=  0.000000 ICntrl=     500 IOpCl=  0 I1Cent=   200000004 NGrid=           0
         NMat0=    1 NMatS0=      1 NMatT0=    0 NMatD0=    1 NMtDS0=    0 NMtDT0=    0
 Petite list used in FoFCou.
 Keep R1 ints in memory in canonical form, NReq=4993994.
 Requested convergence on RMS density matrix=1.00D-08 within 128 cycles.
 Requested convergence on MAX density matrix=1.00D-06.
 Requested convergence on             energy=1.00D-06.
 No special actions if energy rises.
 Integral accuracy reduced to 1.0D-05 until final iterations.
 Initial convergence to 1.0D-05 achieved.  Increase integral accuracy.
 SCF Done:  E(RB3LYP) =  -562.333395873     A.U. after   17 cycles
            NFock= 17  Conv=0.71D-08     -V/T= 2.0130
 Calling FoFJK, ICntrl=      2127 FMM=F ISym2X=0 I1Cent= 0 IOpClX= 0 NMat=1 NMatS=1 NMatT=0.
 ***** Axes restored to original set *****
 -------------------------------------------------------------------
 Center     Atomic                   Forces (Hartrees/Bohr)
 Number     Number              X              Y              Z
 -------------------------------------------------------------------
      1        7           0.029005024    0.015009431    0.047734254
      2        6          -0.031831444    0.001957175   -0.051718704
      3        6           0.008532417    0.044750238    0.035795240
      4        6          -0.039576735   -0.045924320   -0.033174691
      5        6          -0.076215494   -0.050894209    0.020724657
      6        6           0.034724113   -0.018792096    0.005087603
      7        6          -0.001790314   -0.011664237   -0.060814374
      8        6           0.020241283   -0.000414520    0.033752558
      9        6           0.007495194    0.007113157    0.004725739
     10        6           0.012372360    0.002124915    0.013667002
     11        6          -0.004640103   -0.002006600   -0.011826730
     12        6          -0.020258976    0.011655567    0.004814731
     13        7          -0.035314416   -0.033586515   -0.039878668
     14        6           0.033418860    0.029387743    0.033285179
     15        1           0.056190468    0.056447410    0.028527689
     16        1           0.005815263   -0.013986935   -0.035952546
     17        1           0.007340929    0.013189900   -0.002469910
     18        1          -0.002411412   -0.005004003    0.009436220
     19        1          -0.003097019    0.000637898   -0.001715250
 -------------------------------------------------------------------
 Cartesian Forces:  Max     0.076215494 RMS     0.029103046

 GradGradGradGradGradGradGradGradGradGradGradGradGradGradGradGradGradGrad
 Berny optimization.
 Using GEDIIS/GDIIS optimizer.
 FormGI is forming the generalized inverse of G from B-inverse, IUseBI=4.
 Internal  Forces:  Max     0.100312939 RMS     0.021424422
 Search for a local minimum.
 Step number   2 out of a maximum of  101
 All quantities printed in internal units (Hartrees-Bohrs-Radians)
 Mixed Optimization -- RFO/linear search
 Update second derivatives using D2CorX and points    1    2
 DE= -7.43D-02 DEPred=-7.79D-02 R= 9.54D-01
 TightC=F SS=  1.41D+00  RLast= 3.24D-01 DXNew= 5.0454D-01 9.7175D-01
 Trust test= 9.54D-01 RLast= 3.24D-01 DXMaxT set to 5.05D-01
 ITU=  1  0
 Use linear search instead of GDIIS.
 Linear search step of   0.600 exceeds DXMaxT=   0.505 but not scaled.
 Quartic linear search produced a step of  2.00000.
 Iteration  1 RMS(Cart)=  0.09684755 RMS(Int)=  0.02079554
 Iteration  2 RMS(Cart)=  0.02770964 RMS(Int)=  0.00202154
 Iteration  3 RMS(Cart)=  0.00190136 RMS(Int)=  0.00064234
 Iteration  4 RMS(Cart)=  0.00000350 RMS(Int)=  0.00064233
 Iteration  5 RMS(Cart)=  0.00000000 RMS(Int)=  0.00064233
 Variable       Old X    -DE/DX   Delta X   Delta X   Delta X     New X
                                 (Linear)    (Quad)   (Total)
    R1        2.22700   0.05750   0.06297   0.00000   0.06297   2.28997
    R2        2.77318   0.00157   0.01181   0.00000   0.01181   2.78499
    R3        2.63874   0.01600   0.03592   0.00000   0.03520   2.67394
    R4        2.82962  -0.02318  -0.05203   0.00000  -0.05273   2.77689
    R5        2.76173   0.07491   0.21010   0.00000   0.21047   2.97220
    R6        2.07724  -0.00261   0.00117   0.00000   0.00117   2.07841
    R7        2.63268  -0.02658  -0.05275   0.00000  -0.05219   2.58049
    R8        2.10094   0.00023   0.00433   0.00000   0.00433   2.10527
    R9        2.63114   0.01823   0.04430   0.00000   0.04477   2.67590
   R10        2.69616   0.05390   0.13244   0.00000   0.13284   2.82899
   R11        2.72533   0.02185   0.05210   0.00000   0.05286   2.77819
   R12        2.69869  -0.00350  -0.00722   0.00000  -0.00744   2.69125
   R13        2.66143  -0.00270  -0.00357   0.00000  -0.00442   2.65701
   R14        2.07212   0.00414   0.01142   0.00000   0.01142   2.08354
   R15        2.64880   0.02481   0.05244   0.00000   0.05197   2.70077
   R16        2.06186   0.00426   0.01003   0.00000   0.01003   2.07190
   R17        2.64283   0.00961   0.02247   0.00000   0.02282   2.66565
   R18        2.06729   0.00315   0.00728   0.00000   0.00728   2.07457
   R19        2.73674   0.00759   0.01661   0.00000   0.01661   2.75335
   R20        2.22187   0.06294   0.06721   0.00000   0.06721   2.28908
    A1        2.12443   0.00497   0.02964   0.00000   0.02988   2.15431
    A2        1.98153   0.01303   0.03645   0.00000   0.03670   2.01823
    A3        2.17476  -0.01745  -0.06375   0.00000  -0.06490   2.10986
    A4        1.79883   0.02931   0.10193   0.00000   0.10143   1.90026
    A5        1.50697   0.07100   0.27775   0.00000   0.27800   1.78497
    A6        2.15796  -0.02160  -0.06644   0.00000  -0.06548   2.09249
    A7        1.88342   0.02314   0.08929   0.00000   0.08951   1.97292
    A8        2.01759   0.00597   0.01375   0.00000   0.01375   2.03134
    A9        2.09242  -0.00120  -0.01431   0.00000  -0.01245   2.07997
   A10        2.00716   0.01407   0.05197   0.00000   0.05216   2.05932
   A11        2.14997   0.01001   0.01136   0.00000   0.01068   2.16064
   A12        2.11929  -0.02405  -0.06307   0.00000  -0.06253   2.05676
   A13        2.04041   0.00032   0.00856   0.00000   0.00802   2.04843
   A14        2.23791  -0.01981  -0.06243   0.00000  -0.06239   2.17551
   A15        2.00485   0.01946   0.05389   0.00000   0.05378   2.05863
   A16        2.11292  -0.00423  -0.01286   0.00000  -0.01377   2.09915
   A17        2.12472  -0.00169  -0.00378   0.00000  -0.00332   2.12140
   A18        2.04554   0.00592   0.01663   0.00000   0.01709   2.06263
   A19        2.10728   0.00209   0.00629   0.00000   0.00486   2.11214
   A20        2.08828  -0.00241  -0.01017   0.00000  -0.00950   2.07878
   A21        2.08753   0.00029   0.00377   0.00000   0.00445   2.09198
   A22        2.07211   0.00906   0.02726   0.00000   0.02711   2.09922
   A23        2.09664  -0.00316  -0.00881   0.00000  -0.00873   2.08790
   A24        2.11351  -0.00585  -0.01824   0.00000  -0.01818   2.09533
   A25        2.09436   0.00035   0.00031   0.00000   0.00136   2.09572
   A26        2.10870  -0.00232  -0.00587   0.00000  -0.00643   2.10226
   A27        2.07946   0.00191   0.00533   0.00000   0.00482   2.08429
   A28        3.00334   0.01359   0.07868   0.00000   0.07868   3.08202
   A29        3.30580   0.10031   0.37968   0.00000   0.37943   3.68523
   A30        3.13850   0.00352   0.01698   0.00000   0.01698   3.15548
   A31        3.22831   0.00297   0.02160   0.00000   0.02160   3.24991
   A32        3.13125   0.00694   0.02254   0.00000   0.02266   3.15391
   A33        3.08309   0.00233   0.00948   0.00000   0.00948   3.09257
    D1        2.45264   0.01555   0.07012   0.00000   0.06983   2.52247
    D2       -0.60860   0.00600   0.03364   0.00000   0.03396  -0.57464
    D3       -2.96383  -0.01631  -0.07376   0.00000  -0.07304  -3.03688
    D4        0.18505  -0.00901  -0.04068   0.00000  -0.04170   0.14335
    D5        0.10321  -0.00765  -0.03969   0.00000  -0.03968   0.06353
    D6       -3.03109  -0.00035  -0.00662   0.00000  -0.00834  -3.03943
    D7        0.78734  -0.00128  -0.01322   0.00000  -0.01278   0.77456
    D8       -1.64758  -0.01664  -0.07842   0.00000  -0.07850  -1.72608
    D9       -2.34391  -0.00822  -0.03576   0.00000  -0.03544  -2.37935
   D10        1.50436  -0.02358  -0.10096   0.00000  -0.10116   1.40319
   D11       -0.42449   0.00870   0.03202   0.00000   0.03103  -0.39346
   D12        1.96238   0.02996   0.12465   0.00000   0.12430   2.08669
   D13       -0.20778   0.00569   0.01662   0.00000   0.01531  -0.19247
   D14        3.05717   0.00709   0.01862   0.00000   0.01672   3.07390
   D15        0.35393   0.00467   0.01993   0.00000   0.02086   0.37479
   D16       -2.79398  -0.00181  -0.00812   0.00000  -0.00881  -2.80278
   D17       -2.90865   0.00588   0.02374   0.00000   0.02460  -2.88404
   D18        0.22663  -0.00060  -0.00431   0.00000  -0.00506   0.22158
   D19        3.00596  -0.00219  -0.00963   0.00000  -0.00858   2.99738
   D20       -0.09607  -0.00046  -0.00247   0.00000  -0.00186  -0.09793
   D21       -0.00456  -0.00350  -0.01592   0.00000  -0.01504  -0.01961
   D22       -3.10660  -0.00177  -0.00876   0.00000  -0.00832  -3.11492
   D23        2.75959  -0.00074  -0.00118   0.00000   0.00012   2.75970
   D24       -0.37918  -0.00036  -0.00033   0.00000   0.00049  -0.37869
   D25       -0.37484   0.00650   0.03115   0.00000   0.03179  -0.34305
   D26        2.76958   0.00688   0.03199   0.00000   0.03216   2.80174
   D27        0.30475  -0.01048  -0.04357   0.00000  -0.04341   0.26134
   D28       -2.82240  -0.00773  -0.03250   0.00000  -0.03253  -2.85493
   D29       -2.83955  -0.01086  -0.04441   0.00000  -0.04379  -2.88334
   D30        0.31649  -0.00811  -0.03333   0.00000  -0.03292   0.28357
   D31       -0.06118   0.00326   0.01339   0.00000   0.01339  -0.04780
   D32        3.03466   0.00437   0.01785   0.00000   0.01808   3.05274
   D33        3.06597   0.00049   0.00225   0.00000   0.00231   3.06828
   D34       -0.12137   0.00159   0.00670   0.00000   0.00700  -0.11437
   D35       -0.08468   0.00381   0.01536   0.00000   0.01562  -0.06906
   D36        3.01801   0.00201   0.00809   0.00000   0.00872   3.02673
   D37        3.10311   0.00262   0.01057   0.00000   0.01065   3.11376
   D38       -0.07738   0.00082   0.00330   0.00000   0.00374  -0.07363
         Item               Value     Threshold  Converged?
 Maximum Force            0.100313     0.000450     NO 
 RMS     Force            0.021424     0.000300     NO 
 Maximum Displacement     0.463361     0.001800     NO 
 RMS     Displacement     0.114799     0.001200     NO 
 Predicted change in Energy=-7.545330D-02
 GradGradGradGradGradGradGradGradGradGradGradGradGradGradGradGradGradGrad

                          Input orientation:                          
 ---------------------------------------------------------------------
 Center     Atomic      Atomic             Coordinates (Angstroms)
 Number     Number       Type             X           Y           Z
 ---------------------------------------------------------------------
      1          7           0        6.944572    1.773399    2.447124
      2          6           0        6.371487    1.374048    1.456898
      3          6           0        5.622400    0.746897    0.353494
      4          6           0        6.233129    0.264749   -0.828341
      5          6           0        5.473037   -1.027791   -1.303067
      6          6           0        4.107730   -1.052868   -1.303373
      7          6           0        3.400776   -0.160122   -0.461736
      8          6           0        4.177256    0.594674    0.571941
      9          6           0        3.461331    1.151205    1.670085
     10          6           0        2.073536    1.358021    1.579725
     11          6           0        1.302904    0.741811    0.545808
     12          6           0        1.935443   -0.042975   -0.441004
     13          7           0        0.421250   -1.416328   -2.154929
     14          6           0        1.122173   -0.779283   -1.399818
     15          1           0        7.022030    0.364361   -1.588197
     16          1           0        5.985488   -1.970168   -1.002321
     17          1           0        3.969967    1.433687    2.606642
     18          1           0        1.585131    2.022179    2.302532
     19          1           0        0.210457    0.850231    0.545238
 ---------------------------------------------------------------------
                    Distance matrix (angstroms):
                    1          2          3          4          5
     1  N    0.000000
     2  C    1.211799   0.000000
     3  C    2.680510   1.473754   0.000000
     4  C    3.675711   2.544013   1.414988   0.000000
     5  C    4.906731   3.767419   2.432287   1.572820   0.000000
     6  C    5.486501   4.316667   2.877254   2.545406   1.365537
     7  C    4.975787   3.854861   2.534343   2.887410   2.398948
     8  C    3.544537   2.491028   1.469467   2.509234   2.797694
     9  C    3.622690   2.926450   2.562635   3.835466   4.199359
    10  C    4.965070   4.299736   3.804150   4.929122   5.055610
    11  C    6.042152   5.188481   4.323778   5.140330   4.892836
    12  C    6.060683   5.028765   3.853412   4.326065   3.771948
    13  N    8.596917   7.499120   6.166335   6.193851   5.137819
    14  C    7.430712   6.352397   5.065113   5.247710   4.359029
    15  H    4.274951   3.273420   2.423935   1.099849   2.102086
    16  H    5.180040   4.168997   3.058187   2.255316   1.114059
    17  H    2.998187   2.663224   2.877306   4.276380   4.858386
    18  H    5.367161   4.903506   4.660970   5.873229   6.117065
    19  H    7.058167   6.250103   5.416324   6.205005   5.885401
                    6          7          8          9         10
     6  C    0.000000
     7  C    1.416027   0.000000
     8  C    2.497205   1.497039   0.000000
     9  C    3.757290   2.503579   1.424148   0.000000
    10  C    4.273475   2.869475   2.454377   1.406028   0.000000
    11  C    3.808857   2.495936   2.878234   2.467876   1.429185
    12  C    2.546056   1.470155   2.541335   2.865502   2.462764
    13  N    3.800972   3.650004   5.058411   5.519516   4.937074
    14  C    2.999617   2.540746   3.887045   4.315408   3.788249
    15  H    3.253123   3.828508   3.579382   4.890205   5.959084
    16  H    2.111408   3.201442   3.510899   4.822457   5.748667
    17  H    4.635747   3.504162   2.210638   1.102563   2.157948
    18  H    5.368610   3.962346   3.428094   2.163033   1.096401
    19  H    4.714646   3.494702   3.975112   3.453122   2.190679
                   11         12         13         14         15
    11  C    0.000000
    12  C    1.410600   0.000000
    13  N    3.567753   2.667661   0.000000
    14  C    2.476257   1.457011   1.211327   0.000000
    15  H    6.115950   5.230234   6.860199   6.012630   0.000000
    16  H    5.628332   4.520179   5.709289   5.022752   2.620629
    17  H    3.440778   3.950692   6.586998   5.390630   5.296718
    18  H    2.192048   3.451749   5.748644   4.665824   6.888106
    19  H    1.097814   2.178546   3.531660   2.696253   7.154379
                   16         17         18         19
    16  H    0.000000
    17  H    5.354733   0.000000
    18  H    6.798826   2.475127   0.000000
    19  H    6.610640   4.327092   2.520173   0.000000
 Stoichiometry    C12H5N2(1-)
 Framework group  C1[X(C12H5N2)]
 Deg. of freedom    51
 Full point group                 C1      NOp   1
 Largest Abelian subgroup         C1      NOp   1
 Largest concise Abelian subgroup C1      NOp   1
                         Standard orientation:                         
 ---------------------------------------------------------------------
 Center     Atomic      Atomic             Coordinates (Angstroms)
 Number     Number       Type             X           Y           Z
 ---------------------------------------------------------------------
      1          7           0        4.138047    0.923199    0.191577
      2          6           0        3.139287    0.288443   -0.069225
      3          6           0        1.876972   -0.458410   -0.213182
      4          6           0        1.818505   -1.841328   -0.506967
      5          6           0        0.596697   -2.472484    0.256309
      6          6           0       -0.607696   -1.828988    0.262762
      7          6           0       -0.646166   -0.433836    0.023596
      8          6           0        0.650127    0.314996    0.023514
      9          6           0        0.605594    1.726576    0.206971
     10          6           0       -0.586324    2.434559   -0.027565
     11          6           0       -1.837626    1.753254   -0.139984
     12          6           0       -1.889156    0.345140   -0.074025
     13          7           0       -4.272429   -0.849463    0.022664
     14          6           0       -3.183558   -0.323136   -0.045538
     15          1           0        2.246412   -2.712588   -1.024143
     16          1           0        0.890059   -2.983583    1.201743
     17          1           0        1.493494    2.294535    0.530546
     18          1           0       -0.544824    3.523470   -0.148592
     19          1           0       -2.764400    2.333284   -0.239236
 ---------------------------------------------------------------------
 Rotational constants (GHZ):      1.3349965      0.5298040      0.3848053
 Standard basis: STO-3G (5D, 7F)
 There are    75 symmetry adapted cartesian basis functions of A   symmetry.
 There are    75 symmetry adapted basis functions of A   symmetry.
    75 basis functions,   225 primitive gaussians,    75 cartesian basis functions
    46 alpha electrons       46 beta electrons
       nuclear repulsion energy       699.5039561079 Hartrees.
 NAtoms=   19 NActive=   19 NUniq=   19 SFac= 1.00D+00 NAtFMM=   60 NAOKFM=F Big=F
 Integral buffers will be    131072 words long.
 Raffenetti 2 integral format.
 Two-electron integral symmetry is turned on.
 One-electron integrals computed using PRISM.
 NBasis=    75 RedAO= T EigKep=  1.81D-01  NBF=    75
 NBsUse=    75 1.00D-06 EigRej= -1.00D+00 NBFU=    75
 Initial guess from the checkpoint file:  "/tmp/bnp.472690.sequoia/Gau-15962.chk"
 B after Tr=     0.000000    0.000000    0.000000
         Rot=    0.999833   -0.004598    0.001048    0.017661 Ang=  -2.09 deg.
 ExpMin= 1.69D-01 ExpMax= 9.91D+01 ExpMxC= 9.91D+01 IAcc=1 IRadAn=         1 AccDes= 0.00D+00
 Harris functional with IExCor=  402 and IRadAn=       1 diagonalized for initial guess.
 HarFok:  IExCor=  402 AccDes= 0.00D+00 IRadAn=         1 IDoV= 1 UseB2=F ITyADJ=14
 ICtDFT=  3500011 ScaDFX=  1.000000  1.000000  1.000000  1.000000
 FoFCou: FMM=F IPFlag=           0 FMFlag=      100000 FMFlg1=           0
         NFxFlg=           0 DoJE=T BraDBF=F KetDBF=T FulRan=T
         wScrn=  0.000000 ICntrl=     500 IOpCl=  0 I1Cent=   200000004 NGrid=           0
         NMat0=    1 NMatS0=      1 NMatT0=    0 NMatD0=    1 NMtDS0=    0 NMtDT0=    0
 Petite list used in FoFCou.
 Keep R1 ints in memory in canonical form, NReq=4993994.
 Requested convergence on RMS density matrix=1.00D-08 within 128 cycles.
 Requested convergence on MAX density matrix=1.00D-06.
 Requested convergence on             energy=1.00D-06.
 No special actions if energy rises.
 Integral accuracy reduced to 1.0D-05 until final iterations.
 Initial convergence to 1.0D-05 achieved.  Increase integral accuracy.
 SCF Done:  E(RB3LYP) =  -562.412703285     A.U. after   18 cycles
            NFock= 18  Conv=0.53D-08     -V/T= 2.0143
 Calling FoFJK, ICntrl=      2127 FMM=F ISym2X=0 I1Cent= 0 IOpClX= 0 NMat=1 NMatS=1 NMatT=0.
 ***** Axes restored to original set *****
 -------------------------------------------------------------------
 Center     Atomic                   Forces (Hartrees/Bohr)
 Number     Number              X              Y              Z
 -------------------------------------------------------------------
      1        7          -0.009164490   -0.007469060   -0.019976640
      2        6           0.006725037    0.015458775    0.005454959
      3        6           0.012996003    0.020105851    0.001710035
      4        6          -0.046334037   -0.084467620   -0.028615002
      5        6           0.001838571    0.026038408    0.032614357
      6        6           0.001832039   -0.000638395    0.022388037
      7        6           0.001485574    0.009854491   -0.022501049
      8        6          -0.006715268   -0.023882284    0.003551974
      9        6          -0.003687079    0.001776606    0.001248611
     10        6          -0.000636873   -0.005550281   -0.001028429
     11        6           0.006725503    0.003124735   -0.001552148
     12        6           0.001460098    0.010238073    0.009266095
     13        7           0.013054151    0.012969417    0.013865726
     14        6          -0.012493080   -0.012634232   -0.015049257
     15        1           0.022875950    0.030314502    0.030965534
     16        1           0.009403255    0.000525637   -0.029445064
     17        1           0.004036801    0.010335790   -0.007151352
     18        1          -0.002977551   -0.007084439    0.005112752
     19        1          -0.000424605    0.000984026   -0.000859139
 -------------------------------------------------------------------
 Cartesian Forces:  Max     0.084467620 RMS     0.018734108

 GradGradGradGradGradGradGradGradGradGradGradGradGradGradGradGradGradGrad
 Berny optimization.
 Using GEDIIS/GDIIS optimizer.
 FormGI is forming the generalized inverse of G from B-inverse, IUseBI=4.
 Internal  Forces:  Max     0.057033746 RMS     0.010757327
 Search for a local minimum.
 Step number   3 out of a maximum of  101
 All quantities printed in internal units (Hartrees-Bohrs-Radians)
 Mixed Optimization -- RFO/linear search
 Update second derivatives using D2CorX and points    2    3
 ITU=  0  1  0
 Use linear search instead of GDIIS.
     Eigenvalues ---    0.01160   0.01237   0.01252   0.01300   0.01520
     Eigenvalues ---    0.01607   0.01818   0.01932   0.01978   0.02080
     Eigenvalues ---    0.02109   0.02137   0.02204   0.02221   0.02451
     Eigenvalues ---    0.03748   0.04893   0.04895   0.09045   0.14438
     Eigenvalues ---    0.15986   0.15990   0.16009   0.20970   0.21695
     Eigenvalues ---    0.23120   0.23694   0.24312   0.24772   0.24967
     Eigenvalues ---    0.25050   0.30774   0.32538   0.33800   0.34423
     Eigenvalues ---    0.34578   0.34993   0.36414   0.38870   0.39064
     Eigenvalues ---    0.39170   0.41431   0.42887   0.43596   0.44116
     Eigenvalues ---    0.45804   0.46658   0.47489   0.48772   1.23832
     Eigenvalues ---    1.28068
 RFO step:  Lambda=-7.17024829D-02 EMin= 1.15966770D-02
 Quartic linear search produced a step of  0.48517.
 Iteration  1 RMS(Cart)=  0.11910331 RMS(Int)=  0.03359194
 Iteration  2 RMS(Cart)=  0.04325995 RMS(Int)=  0.00469203
 Iteration  3 RMS(Cart)=  0.00535026 RMS(Int)=  0.00083428
 Iteration  4 RMS(Cart)=  0.00004705 RMS(Int)=  0.00083343
 Iteration  5 RMS(Cart)=  0.00000001 RMS(Int)=  0.00083343
 Variable       Old X    -DE/DX   Delta X   Delta X   Delta X     New X
                                 (Linear)    (Quad)   (Total)
    R1        2.28997  -0.02312   0.03055  -0.05258  -0.02203   2.26794
    R2        2.78499  -0.00870   0.00573  -0.02961  -0.02389   2.76110
    R3        2.67394  -0.01044   0.01708  -0.04677  -0.02977   2.64417
    R4        2.77689  -0.00354  -0.02558   0.01767  -0.00852   2.76837
    R5        2.97220  -0.03188   0.10211  -0.18021  -0.07765   2.89455
    R6        2.07841  -0.00224   0.00057  -0.00545  -0.00488   2.07354
    R7        2.58049   0.00167  -0.02532   0.03168   0.00699   2.58748
    R8        2.10527  -0.00406   0.00210  -0.01439  -0.01228   2.09298
    R9        2.67590  -0.00394   0.02172  -0.02287  -0.00101   2.67489
   R10        2.82899  -0.00795   0.06445  -0.07392  -0.00995   2.81904
   R11        2.77819  -0.00152   0.02565  -0.03068  -0.00459   2.77360
   R12        2.69125  -0.00010  -0.00361   0.00482   0.00092   2.69217
   R13        2.65701  -0.00359  -0.00215  -0.00554  -0.00815   2.64886
   R14        2.08354  -0.00155   0.00554  -0.01031  -0.00476   2.07878
   R15        2.70077  -0.00650   0.02522  -0.04144  -0.01632   2.68445
   R16        2.07190   0.00041   0.00487  -0.00396   0.00091   2.07280
   R17        2.66565  -0.00355   0.01107  -0.02035  -0.00892   2.65672
   R18        2.07457   0.00052   0.00353  -0.00222   0.00131   2.07588
   R19        2.75335   0.00030   0.00806  -0.00781   0.00025   2.75361
   R20        2.28908  -0.02302   0.03261  -0.05423  -0.02162   2.26746
    A1        2.15431  -0.00724   0.01450  -0.03168  -0.01774   2.13656
    A2        2.01823   0.01042   0.01781   0.02993   0.04721   2.06544
    A3        2.10986  -0.00294  -0.03149   0.00418  -0.02936   2.08050
    A4        1.90026   0.01667   0.04921   0.07176   0.12158   2.02184
    A5        1.78497   0.04036   0.13488   0.21236   0.34693   2.13190
    A6        2.09249  -0.01153  -0.03177  -0.02926  -0.06278   2.02970
    A7        1.97292   0.00829   0.04343   0.02270   0.06474   2.03767
    A8        2.03134   0.00898   0.00667   0.06208   0.06688   2.09822
    A9        2.07997   0.00688  -0.00604   0.03927   0.03296   2.11293
   A10        2.05932  -0.00052   0.02530  -0.01222   0.01177   2.07108
   A11        2.16064   0.00881   0.00518   0.01447   0.02070   2.18134
   A12        2.05676  -0.00819  -0.03034  -0.00213  -0.03223   2.02453
   A13        2.04843  -0.00507   0.00389  -0.01996  -0.01777   2.03065
   A14        2.17551  -0.00160  -0.03027   0.01629  -0.01338   2.16213
   A15        2.05863   0.00649   0.02609   0.00193   0.02694   2.08556
   A16        2.09915   0.00030  -0.00668   0.01599   0.00764   2.10679
   A17        2.12140  -0.00343  -0.00161  -0.01994  -0.02073   2.10067
   A18        2.06263   0.00313   0.00829   0.00395   0.01307   2.07570
   A19        2.11214  -0.00305   0.00236  -0.01080  -0.01002   2.10212
   A20        2.07878   0.00310  -0.00461   0.01691   0.01298   2.09177
   A21        2.09198  -0.00008   0.00216  -0.00638  -0.00349   2.08849
   A22        2.09922   0.00154   0.01315  -0.00520   0.00728   2.10651
   A23        2.08790  -0.00049  -0.00424   0.00167  -0.00223   2.08567
   A24        2.09533  -0.00102  -0.00882   0.00355  -0.00496   2.09037
   A25        2.09572   0.00500   0.00066   0.02056   0.02110   2.11681
   A26        2.10226  -0.00326  -0.00312  -0.01039  -0.01348   2.08878
   A27        2.08429  -0.00175   0.00234  -0.01049  -0.00812   2.07617
   A28        3.08202   0.00472   0.03817   0.03339   0.07156   3.15358
   A29        3.68523   0.05703   0.18409   0.28412   0.46851   4.15374
   A30        3.15548   0.00130   0.00824   0.00509   0.01333   3.16882
   A31        3.24991  -0.00058   0.01048  -0.01715  -0.00667   3.24324
   A32        3.15391   0.00143   0.01099  -0.00072   0.01036   3.16426
   A33        3.09257   0.00171   0.00460   0.01248   0.01709   3.10965
    D1        2.52247   0.00986   0.03388   0.14864   0.18328   2.70574
    D2       -0.57464   0.00294   0.01648   0.07932   0.09857  -0.47607
    D3       -3.03688  -0.01479  -0.03544  -0.15099  -0.18508   3.06123
    D4        0.14335  -0.00949  -0.02023  -0.09658  -0.11735   0.02599
    D5        0.06353  -0.00880  -0.01925  -0.08829  -0.10532  -0.04179
    D6       -3.03943  -0.00349  -0.00405  -0.03387  -0.03759  -3.07702
    D7        0.77456  -0.00598  -0.00620  -0.09396  -0.09936   0.67520
    D8       -1.72608  -0.01846  -0.03809  -0.20194  -0.24057  -1.96666
    D9       -2.37935  -0.00742  -0.01719  -0.09324  -0.10972  -2.48907
   D10        1.40319  -0.01989  -0.04908  -0.20122  -0.25093   1.15226
   D11       -0.39346   0.00569   0.01505   0.06238   0.07513  -0.31833
   D12        2.08669   0.01799   0.06031   0.15859   0.21850   2.30519
   D13       -0.19247  -0.00107   0.00743  -0.02710  -0.02112  -0.21360
   D14        3.07390  -0.00130   0.00811  -0.02797  -0.02115   3.05275
   D15        0.37479   0.00111   0.01012   0.02355   0.03446   0.40924
   D16       -2.80278  -0.00399  -0.00427  -0.02676  -0.03100  -2.83378
   D17       -2.88404   0.00253   0.01194   0.02564   0.03802  -2.84602
   D18        0.22158  -0.00257  -0.00245  -0.02467  -0.02743   0.19414
   D19        2.99738  -0.00127  -0.00416  -0.02257  -0.02693   2.97045
   D20       -0.09793  -0.00061  -0.00090  -0.01416  -0.01525  -0.11318
   D21       -0.01961  -0.00201  -0.00730  -0.02276  -0.02976  -0.04937
   D22       -3.11492  -0.00134  -0.00404  -0.01436  -0.01808  -3.13300
   D23        2.75970   0.00114   0.00006   0.01775   0.01844   2.77814
   D24       -0.37869   0.00106   0.00024   0.02142   0.02219  -0.35650
   D25       -0.34305   0.00671   0.01542   0.07290   0.08911  -0.25394
   D26        2.80174   0.00663   0.01560   0.07658   0.09287   2.89461
   D27        0.26134  -0.00849  -0.02106  -0.08091  -0.10129   0.16005
   D28       -2.85493  -0.00690  -0.01578  -0.06823  -0.08350  -2.93842
   D29       -2.88334  -0.00842  -0.02125  -0.08450  -0.10505  -2.98840
   D30        0.28357  -0.00683  -0.01597  -0.07183  -0.08726   0.19631
   D31       -0.04780   0.00260   0.00650   0.03190   0.03876  -0.00903
   D32        3.05274   0.00322   0.00877   0.03254   0.04141   3.09415
[...]
 ! D13   D(5,6,7,8)              0.0235         -DE/DX =    0.0                 !
 ! D14   D(5,6,7,12)          -179.9828         -DE/DX =    0.0                 !
 ! D15   D(6,7,8,3)             -0.0191         -DE/DX =    0.0                 !
 ! D16   D(6,7,8,9)           -180.0285         -DE/DX =    0.0                 !
 ! D17   D(12,7,8,3)           179.9871         -DE/DX =    0.0                 !
 ! D18   D(12,7,8,9)            -0.0222         -DE/DX =    0.0                 !
 ! D19   D(6,7,12,11)          180.0171         -DE/DX =    0.0                 !
 ! D20   D(6,7,12,14)            0.019          -DE/DX =    0.0                 !
 ! D21   D(8,7,12,11)            0.0115         -DE/DX =    0.0                 !
 ! D22   D(8,7,12,14)          180.0135         -DE/DX =    0.0                 !
 ! D23   D(3,8,9,10)          -179.9923         -DE/DX =    0.0                 !
 ! D24   D(3,8,9,17)             0.0112         -DE/DX =    0.0                 !
 ! D25   D(7,8,9,10)             0.0176         -DE/DX =    0.0                 !
 ! D26   D(7,8,9,17)           180.0211         -DE/DX =    0.0                 !
 ! D27   D(8,9,10,11)           -0.0006         -DE/DX =    0.0                 !
 ! D28   D(8,9,10,18)          180.0048         -DE/DX =    0.0                 !
 ! D29   D(17,9,10,11)        -180.0042         -DE/DX =    0.0                 !
 ! D30   D(17,9,10,18)           0.0012         -DE/DX =    0.0                 !
 ! D31   D(9,10,11,12)          -0.0105         -DE/DX =    0.0                 !
 ! D32   D(9,10,11,19)         179.984          -DE/DX =    0.0                 !
 ! D33   D(18,10,11,12)        179.9842         -DE/DX =    0.0                 !
 ! D34   D(18,10,11,19)         -0.0214         -DE/DX =    0.0                 !
 ! D35   D(10,11,12,7)           0.0047         -DE/DX =    0.0                 !
 ! D36   D(10,11,12,14)       -179.9974         -DE/DX =    0.0                 !
 ! D37   D(19,11,12,7)        -179.9898         -DE/DX =    0.0                 !
 ! D38   D(19,11,12,14)          0.0082         -DE/DX =    0.0                 !
 --------------------------------------------------------------------------------
 GradGradGradGradGradGradGradGradGradGradGradGradGradGradGradGradGradGrad

                          Input orientation:                          
 ---------------------------------------------------------------------
 Center     Atomic      Atomic             Coordinates (Angstroms)
 Number     Number       Type             X           Y           Z
 ---------------------------------------------------------------------
      1          7           0        7.070924    1.974085    2.225165
      2          6           0        6.390057    1.356141    1.452314
      3          6           0        5.579977    0.604103    0.510653
      4          6           0        6.183066   -0.182858   -0.497402
      5          6           0        5.408145   -0.923095   -1.425191
      6          6           0        3.974817   -0.998310   -1.497835
      7          6           0        3.408882   -0.152774   -0.414980
      8          6           0        4.131532    0.635428    0.573729
      9          6           0        3.411321    1.400000    1.555351
     10          6           0        2.020294    1.406124    1.585787
     11          6           0        1.275569    0.648864    0.637291
     12          6           0        1.961006   -0.103886   -0.329150
     13          7           0        0.468948   -1.486194   -2.058666
     14          6           0        1.202498   -0.891874   -1.316499
     15          1           0        7.284188   -0.204168   -0.541265
     16          1           0        6.003141   -1.494453   -2.159982
     17          1           0        3.980392    1.986966    2.290568
     18          1           0        1.486957    1.996186    2.342862
     19          1           0        0.178385    0.655446    0.663948
 ---------------------------------------------------------------------
                    Distance matrix (angstroms):
                    1          2          3          4          5
     1  N    0.000000
     2  C    1.201139   0.000000
     3  C    2.653173   1.452073   0.000000
     4  C    3.585117   2.492539   1.413930   0.000000
     5  C    4.948089   3.799881   2.471710   1.417479   0.000000
     6  C    5.681702   4.481093   3.029569   2.557771   1.437138
     7  C    4.990436   3.827664   2.478571   2.775572   2.368749
     8  C    3.627571   2.528294   1.450155   2.454731   2.838030
     9  C    3.764428   2.980840   2.535333   3.794971   4.274073
    10  C    5.122523   4.372086   3.804009   4.918659   5.095957
    11  C    6.153348   5.227091   4.306502   5.105176   4.878839
    12  C    6.078960   4.992172   3.781992   4.226149   3.708797
    13  N    8.597141   7.447508   6.090431   6.065260   5.011391
    14  C    7.429370   6.295289   4.973806   5.097027   4.207167
    15  H    3.527521   2.684844   2.159669   1.102201   2.194930
    16  H    5.692139   4.617821   3.422762   2.125284   1.104713
    17  H    3.091250   2.628135   2.763888   4.163254   4.930902
    18  H    5.585251   5.024253   4.695497   5.904979   6.172207
    19  H    7.189109   6.300584   5.404010   6.173142   5.848648
                    6          7          8          9         10
     6  C    0.000000
     7  C    1.485863   0.000000
     8  C    2.642922   1.456376   0.000000
     9  C    3.923182   2.508648   1.437657   0.000000
    10  C    4.371519   2.891609   2.464865   1.391373   0.000000
    11  C    3.815479   2.510163   2.856702   2.443046   1.423974
    12  C    2.494244   1.451241   2.464338   2.813616   2.439391
    13  N    3.583808   3.622557   4.984507   5.481678   4.904510
    14  C    2.780281   2.495423   3.805898   4.287087   3.791154
    15  H    3.535198   3.877704   3.447806   4.687030   5.901353
    16  H    2.190593   3.402252   3.938590   5.375788   6.189282
    17  H    4.823266   3.496441   2.190213   1.099507   2.162424
    18  H    5.468766   3.989676   3.460531   2.163051   1.098082
    19  H    4.671307   3.500487   3.954227   3.435234   2.192244
                   11         12         13         14         15
    11  C    0.000000
    12  C    1.403733   0.000000
    13  N    3.532322   2.669876   0.000000
    14  C    2.489279   1.473471   1.200884   0.000000
    15  H    6.182245   5.328350   7.098844   6.169350   0.000000
    16  H    5.896481   4.650213   5.535127   4.911287   2.434371
    17  H    3.440917   3.913120   6.580951   5.386590   4.871900
    18  H    2.183788   3.431424   5.704100   4.670410   6.838686
    19  H    1.097527   2.177284   3.476159   2.713887   7.258368
                   16         17         18         19
    16  H    0.000000
    17  H    6.001599   0.000000
    18  H    7.270220   2.494001   0.000000
    19  H    6.820882   4.344432   2.515689   0.000000
 Stoichiometry    C12H5N2(1-)
 Framework group  C1[X(C12H5N2)]
 Deg. of freedom    51
 Full point group                 C1      NOp   1
 Largest Abelian subgroup         C1      NOp   1
 Largest concise Abelian subgroup C1      NOp   1
                         Standard orientation:                         
 ---------------------------------------------------------------------
 Center     Atomic      Atomic             Coordinates (Angstroms)
 Number     Number       Type             X           Y           Z
 ---------------------------------------------------------------------
      1          7           0        4.227073    0.799598    0.000127
      2          6           0        3.153796    0.260330    0.000311
      3          6           0        1.863450   -0.405647    0.000042
      4          6           0        1.776131   -1.816878    0.000285
      5          6           0        0.525368   -2.483839   -0.000315
      6          6           0       -0.780751   -1.884324   -0.000580
      7          6           0       -0.615120   -0.407722   -0.000163
      8          6           0        0.627177    0.352364   -0.000054
      9          6           0        0.595175    1.789664   -0.000249
     10          6           0       -0.610636    2.483884   -0.000177
     11          6           0       -1.847848    1.778896    0.000080
     12          6           0       -1.837055    0.375205    0.000036
     13          7           0       -4.211003   -0.846517    0.000334
     14          6           0       -3.110203   -0.366558    0.000241
     15          1           0        2.718245   -2.388950    0.000922
     16          1           0        0.598590   -3.586123   -0.000364
     17          1           0        1.547001    2.340065   -0.000517
     18          1           0       -0.615811    3.581954   -0.000408
     19          1           0       -2.797418    2.329244    0.000401
 ---------------------------------------------------------------------
 Rotational constants (GHZ):      1.3386378      0.5362835      0.3828904

 **********************************************************************

            Population analysis using the SCF density.

 **********************************************************************

 Orbital symmetries:
       Occupied  (A) (A) (A) (A) (A) (A) (A) (A) (A) (A) (A) (A)
                 (A) (A) (A) (A) (A) (A) (A) (A) (A) (A) (A) (A)
                 (A) (A) (A) (A) (A) (A) (A) (A) (A) (A) (A) (A)
                 (A) (A) (A) (A) (A) (A) (A) (A) (A) (A)
       Virtual   (A) (A) (A) (A) (A) (A) (A) (A) (A) (A) (A) (A)
                 (A) (A) (A) (A) (A) (A) (A) (A) (A) (A) (A) (A)
                 (A) (A) (A) (A) (A)
 The electronic state is 1-A.
 Alpha  occ. eigenvalues --  -13.96725 -13.96212  -9.89333  -9.87686  -9.87578
 Alpha  occ. eigenvalues --   -9.87456  -9.87223  -9.87026  -9.86783  -9.86538
 Alpha  occ. eigenvalues --   -9.85115  -9.83485  -9.79374  -9.67662  -0.70516
 Alpha  occ. eigenvalues --   -0.70281  -0.66764  -0.61837  -0.57735  -0.54043
 Alpha  occ. eigenvalues --   -0.51411  -0.44310  -0.41717  -0.40188  -0.35274
 Alpha  occ. eigenvalues --   -0.31967  -0.30204  -0.27321  -0.24984  -0.22173
 Alpha  occ. eigenvalues --   -0.20499  -0.19851  -0.19365  -0.17982  -0.16619
 Alpha  occ. eigenvalues --   -0.13521  -0.13239  -0.13098  -0.12107  -0.11250
 Alpha  occ. eigenvalues --   -0.10048  -0.09041  -0.05810  -0.03387   0.02068
 Alpha  occ. eigenvalues --    0.10705
 Alpha virt. eigenvalues --    0.17521   0.22187   0.23917   0.27556   0.28403
 Alpha virt. eigenvalues --    0.30649   0.34996   0.37648   0.44724   0.46216
 Alpha virt. eigenvalues --    0.46254   0.50221   0.53454   0.55971   0.56452
 Alpha virt. eigenvalues --    0.59064   0.61885   0.62356   0.68919   0.69425
 Alpha virt. eigenvalues --    0.70459   0.74660   0.78154   0.82712   0.84488
 Alpha virt. eigenvalues --    0.91695   0.92932   1.07682   1.09315
          Condensed to atoms (all electrons):
               1          2          3          4          5          6
     1  N    6.619204   0.656650  -0.011479  -0.000118  -0.000001   0.000000
     2  C    0.656650   4.941439   0.427851  -0.028805   0.000787  -0.000004
     3  C   -0.011479   0.427851   4.816170   0.494096  -0.029557  -0.005892
     4  C   -0.000118  -0.028805   0.494096   4.851762   0.481337  -0.017851
     5  C   -0.000001   0.000787  -0.029557   0.481337   4.936587   0.439736
     6  C    0.000000  -0.000004  -0.005892  -0.017851   0.439736   5.473155
     7  C   -0.000001   0.000713  -0.030537  -0.013233  -0.030401   0.386032
     8  C   -0.000012  -0.027247   0.457564  -0.029023  -0.010973  -0.016327
     9  C   -0.000100  -0.004140  -0.028177   0.000706   0.000044   0.000564
    10  C    0.000000   0.000015   0.000755  -0.000007   0.000001   0.000017
    11  C    0.000000   0.000000   0.000030   0.000000  -0.000015   0.000767
    12  C    0.000000  -0.000006   0.000866   0.000012   0.001443  -0.037747
    13  N    0.000000   0.000000   0.000000   0.000000   0.000002  -0.000910
    14  C    0.000000   0.000000  -0.000005   0.000002  -0.000020   0.005779
    15  H    0.000067  -0.003574  -0.027822   0.380616  -0.023184   0.001077
    16  H    0.000000  -0.000019   0.001449  -0.035608   0.380936  -0.031650
    17  H   -0.000093   0.001612  -0.003488   0.000019  -0.000002  -0.000013
    18  H    0.000000   0.000000  -0.000016   0.000000   0.000000   0.000000
    19  H    0.000000   0.000000   0.000001   0.000000   0.000000  -0.000018
               7          8          9         10         11         12
     1  N   -0.000001  -0.000012  -0.000100   0.000000   0.000000   0.000000
     2  C    0.000713  -0.027247  -0.004140   0.000015   0.000000  -0.000006
     3  C   -0.030537   0.457564  -0.028177   0.000755   0.000030   0.000866
     4  C   -0.013233  -0.029023   0.000706  -0.000007   0.000000   0.000012
     5  C   -0.030401  -0.010973   0.000044   0.000001  -0.000015   0.001443
     6  C    0.386032  -0.016327   0.000564   0.000017   0.000767  -0.037747
     7  C    4.907546   0.446528  -0.023053  -0.008264  -0.025571   0.454237
     8  C    0.446528   4.818016   0.468181  -0.027770  -0.008375  -0.033567
     9  C   -0.023053   0.468181   4.835161   0.521936  -0.029423  -0.010394
    10  C   -0.008264  -0.027770   0.521936   4.822272   0.480398  -0.029007
    11  C   -0.025571  -0.008375  -0.029423   0.480398   4.841043   0.505795
    12  C    0.454237  -0.033567  -0.010394  -0.029007   0.505795   4.787660
    13  N    0.000099  -0.000002   0.000000  -0.000001  -0.000256  -0.010141
    14  C   -0.030933   0.000971   0.000013   0.000904  -0.030052   0.406586
    15  H    0.000095   0.001317  -0.000016   0.000000   0.000000   0.000001
    16  H    0.002242   0.000001   0.000001   0.000000   0.000000  -0.000016
    17  H    0.001139  -0.024737   0.384688  -0.026006   0.001413   0.000019
    18  H    0.000022   0.001362  -0.025703   0.387354  -0.025479   0.001330
    19  H    0.001168   0.000017   0.001327  -0.024593   0.387061  -0.024728
              13         14         15         16         17         18
     1  N    0.000000   0.000000   0.000067   0.000000  -0.000093   0.000000
     2  C    0.000000   0.000000  -0.003574  -0.000019   0.001612   0.000000
     3  C    0.000000  -0.000005  -0.027822   0.001449  -0.003488  -0.000016
     4  C    0.000000   0.000002   0.380616  -0.035608   0.000019   0.000000
     5  C    0.000002  -0.000020  -0.023184   0.380936  -0.000002   0.000000
     6  C   -0.000910   0.005779   0.001077  -0.031650  -0.000013   0.000000
     7  C    0.000099  -0.030933   0.000095   0.002242   0.001139   0.000022
     8  C   -0.000002   0.000971   0.001317   0.000001  -0.024737   0.001362
     9  C    0.000000   0.000013  -0.000016   0.000001   0.384688  -0.025703
    10  C   -0.000001   0.000904   0.000000   0.000000  -0.026006   0.387354
    11  C   -0.000256  -0.030052   0.000000   0.000000   0.001413  -0.025479
    12  C   -0.010141   0.406586   0.000001  -0.000016   0.000019   0.001330
    13  N    6.595470   0.659153   0.000000   0.000000   0.000000   0.000000
    14  C    0.659153   4.922353   0.000000  -0.000005   0.000001  -0.000017
    15  H    0.000000   0.000000   0.627876  -0.003926  -0.000002   0.000000
    16  H    0.000000  -0.000005  -0.003926   0.666540   0.000000   0.000000
    17  H    0.000000   0.000001  -0.000002   0.000000   0.604521  -0.003764
    18  H    0.000000  -0.000017   0.000000   0.000000  -0.003764   0.613931
    19  H    0.000073  -0.003313   0.000000   0.000000  -0.000034  -0.003330
              19
     1  N    0.000000
     2  C    0.000000
     3  C    0.000001
     4  C    0.000000
     5  C    0.000000
     6  C   -0.000018
     7  C    0.001168
     8  C    0.000017
     9  C    0.001327
    10  C   -0.024593
    11  C    0.387061
    12  C   -0.024728
    13  N    0.000073
    14  C   -0.003313
    15  H    0.000000
    16  H    0.000000
    17  H   -0.000034
    18  H   -0.003330
    19  H    0.606438
 Mulliken charges:
               1
     1  N   -0.264118
     2  C    0.034729
     3  C   -0.061807
     4  C   -0.083905
     5  C   -0.146721
     6  C   -0.196716
     7  C   -0.037829
     8  C   -0.015924
     9  C   -0.091615
    10  C   -0.098006
    11  C   -0.097335
    12  C   -0.012342
    13  N   -0.243487
    14  C    0.068583
    15  H    0.047475
    16  H    0.020054
    17  H    0.064726
    18  H    0.054309
    19  H    0.059929
 Sum of Mulliken charges =  -1.00000
 Mulliken charges with hydrogens summed into heavy atoms:
               1
     1  N   -0.264118
     2  C    0.034729
     3  C   -0.061807
     4  C   -0.036431
     5  C   -0.126666
     6  C   -0.196716
     7  C   -0.037829
     8  C   -0.015924
     9  C   -0.026889
    10  C   -0.043696
    11  C   -0.037406
    12  C   -0.012342
    13  N   -0.243487
    14  C    0.068583
 Electronic spatial extent (au):  <R**2>=           2675.2633
 Charge=             -1.0000 electrons
 Dipole moment (field-independent basis, Debye):
    X=              0.8954    Y=              3.9141    Z=              0.0011  Tot=              4.0152
 Quadrupole moment (field-independent basis, Debye-Ang):
   XX=           -124.2613   YY=            -85.6956   ZZ=            -74.1485
   XY=            -15.0159   XZ=              0.0000   YZ=             -0.0036
 Traceless Quadrupole moment (field-independent basis, Debye-Ang):
   XX=            -29.5595   YY=              9.0062   ZZ=             20.5533
   XY=            -15.0159   XZ=              0.0000   YZ=             -0.0036
 Octapole moment (field-independent basis, Debye-Ang**2):
  XXX=             -7.8845  YYY=             29.0167  ZZZ=              0.0016  XYY=             10.8636
  XXY=              7.8073  XXZ=             -0.0055  XZZ=             -0.5977  YZZ=             -0.3944
  YYZ=              0.0074  XYZ=             -0.0023
 Hexadecapole moment (field-independent basis, Debye-Ang**3):
 XXXX=          -3326.5537 YYYY=          -1102.1192 ZZZZ=            -58.3598 XXXY=           -256.9747
 XXXZ=              0.0291 YYYX=            -25.8406 YYYZ=             -0.0272 ZZZX=             -0.0025
 ZZZY=             -0.0010 XXYY=           -607.0832 XXZZ=           -385.8207 YYZZ=           -195.2293
 XXYZ=             -0.0029 YYXZ=             -0.0064 ZZXY=              7.1920
 N-N= 7.020199146676D+02 E-N=-2.726554792342D+03  KE= 5.547359342939D+02
 1\1\GINC-N047\FOpt\RB3LYP\STO-3G\C12H5N2(1-)\R2532\15-Jun-2021\0\\#N B
 3LYP/STO-3G OPT\\1Naph\\-1,1\N,7.0709239671,1.9740851698,2.2251654901\
 C,6.3900567041,1.356141051,1.4523136173\C,5.5799765322,0.6041026906,0.
 5106532084\C,6.183066417,-0.1828580115,-0.4974016619\C,5.4081449187,-0
 .9230946824,-1.4251905677\C,3.9748167223,-0.9983098635,-1.4978346735\C
 ,3.4088815395,-0.1527739651,-0.4149798841\C,4.1315324128,0.6354276088,
 0.5737293182\C,3.4113212619,1.400000026,1.5553510593\C,2.020294309,1.4
 061242535,1.5857866598\C,1.2755693568,0.648864112,0.6372913007\C,1.961
 0060149,-0.1038863894,-0.3291499718\N,0.4689481137,-1.4861943117,-2.05
 86657042\C,1.2024980527,-0.8918740262,-1.31649944\H,7.2841877151,-0.20
 41682335,-0.5412645674\H,6.0031413453,-1.4944532629,-2.1599824339\H,3.
 980392462,1.9869658702,2.2905677915\H,1.4869567623,1.9961855147,2.3428
 621587\H,0.1783853924,0.6554464496,0.6639483005\\Version=ES64L-G09RevD
 .01\State=1-A\HF=-562.5159761\RMSD=6.782e-09\RMSF=2.201e-05\Dipole=-0.
 432864,0.9365574,1.196212\Quadrupole=-5.9005273,5.6590344,0.2414929,-1
 1.3621001,-14.0733924,-12.0285085\PG=C01 [X(C12H5N2)]\\@


 I WISH TO HAVE NO CONNECTION WITH ANY SHIP THAT DOES NOT SAIL FAST,
 FOR I INTEND TO GO IN HARM'S WAY.
     -- JOHN PAUL JONES, USN 1747-1792
 Job cpu time:       0 days  0 hours  7 minutes  9.5 seconds.
 File lengths (MBytes):  RWF=      5 Int=      0 D2E=      0 Chk=      2 Scr=      1
 Normal termination of Gaussian 09 at Tue Jun 15 11:21:04 2021.
