 Entering Gaussian System, Link 0=/usr/local/apps//g09/g09
 Input=41.com
 Output=41.out
 Initial command:
 /usr/local/apps//g09/l1.exe "/tmp/bnp.472625.sequoia/Gau-5446.inp" -scrdir="/tmp/bnp.472625.sequoia/"
 Entering Link 1 = /usr/local/apps//g09/l1.exe PID=      5447.
  
 Copyright (c) 1988,1990,1992,1993,1995,1998,2003,2009,2013,
            Gaussian, Inc.  All Rights Reserved.
  
 This is part of the Gaussian(R) 09 program.  It is based on
 the Gaussian(R) 03 system (copyright 2003, Gaussian, Inc.),
 the Gaussian(R) 98 system (copyright 1998, Gaussian, Inc.),
 the Gaussian(R) 94 system (copyright 1995, Gaussian, Inc.),
 the Gaussian 92(TM) system (copyright 1992, Gaussian, Inc.),
 the Gaussian 90(TM) system (copyright 1990, Gaussian, Inc.),
 the Gaussian 88(TM) system (copyright 1988, Gaussian, Inc.),
 the Gaussian 86(TM) system (copyright 1986, Carnegie Mellon
 University), and the Gaussian 82(TM) system (copyright 1983,
 Carnegie Mellon University). Gaussian is a federally registered
 trademark of Gaussian, Inc.
  
 This software contains proprietary and confidential information,
 including trade secrets, belonging to Gaussian, Inc.
  
 This software is provided under written license and may be
 used, copied, transmitted, or stored only in accord with that
 written license.
  
 The following legend is applicable only to US Government
 contracts under FAR:
  
                    RESTRICTED RIGHTS LEGEND
  
 Use, reproduction and disclosure by the US Government is
 subject to restrictions as set forth in subparagraphs (a)
 and (c) of the Commercial Computer Software - Restricted
 Rights clause in FAR 52.227-19.
  
 Gaussian, Inc.
 340 Quinnipiac St., Bldg. 40, Wallingford CT 06492
  
  
 ---------------------------------------------------------------
 Warning -- This program may not be used in any manner that
 competes with the business of Gaussian, Inc. or will provide
 assistance to any competitor of Gaussian, Inc.  The licensee
 of this program is prohibited from giving any competitor of
 Gaussian, Inc. access to this program.  By using this program,
 the user acknowledges that Gaussian, Inc. is engaged in the
 business of creating and licensing software in the field of
 computational chemistry and represents and warrants to the
 licensee that it is not a competitor of Gaussian, Inc. and that
 it will not use this program in any manner prohibited above.
 ---------------------------------------------------------------
  

 Cite this work as:
 Gaussian 09, Revision D.01,
 M. J. Frisch, G. W. Trucks, H. B. Schlegel, G. E. Scuseria, 
 M. A. Robb, J. R. Cheeseman, G. Scalmani, V. Barone, B. Mennucci, 
 G. A. Petersson, H. Nakatsuji, M. Caricato, X. Li, H. P. Hratchian, 
 A. F. Izmaylov, J. Bloino, G. Zheng, J. L. Sonnenberg, M. Hada, 
 M. Ehara, K. Toyota, R. Fukuda, J. Hasegawa, M. Ishida, T. Nakajima, 
 Y. Honda, O. Kitao, H. Nakai, T. Vreven, J. A. Montgomery, Jr., 
 J. E. Peralta, F. Ogliaro, M. Bearpark, J. J. Heyd, E. Brothers, 
 K. N. Kudin, V. N. Staroverov, T. Keith, R. Kobayashi, J. Normand, 
 K. Raghavachari, A. Rendell, J. C. Burant, S. S. Iyengar, J. Tomasi, 
 M. Cossi, N. Rega, J. M. Millam, M. Klene, J. E. Knox, J. B. Cross, 
 V. Bakken, C. Adamo, J. Jaramillo, R. Gomperts, R. E. Stratmann, 
 O. Yazyev, A. J. Austin, R. Cammi, C. Pomelli, J. W. Ochterski, 
 R. L. Martin, K. Morokuma, V. G. Zakrzewski, G. A. Voth, 
 P. Salvador, J. J. Dannenberg, S. Dapprich, A. D. Daniels, 
 O. Farkas, J. B. Foresman, J. V. Ortiz, J. Cioslowski, 
 and D. J. Fox, Gaussian, Inc., Wallingford CT, 2013.
 
 ******************************************
 Gaussian 09:  ES64L-G09RevD.01 24-Apr-2013
                15-Jun-2021 
 ******************************************
 -------------------
 #N B3LYP/STO-3G OPT
 -------------------
 1/14=-1,18=20,19=15,26=3,38=1/1,3;
 2/9=110,12=2,17=6,18=5,40=1/2;
 3/6=3,11=2,16=1,25=1,30=1,71=1,74=-5/1,2,3;
 4//1;
 5/5=2,38=5/2;
 6/7=2,8=2,9=2,10=2,28=1/1;
 7//1,2,3,16;
 1/14=-1,18=20,19=15,26=3/3(2);
 2/9=110/2;
 99//99;
 2/9=110/2;
 3/6=3,11=2,16=1,25=1,30=1,71=1,74=-5/1,2,3;
 4/5=5,16=3,69=1/1;
 5/5=2,38=5/2;
 7//1,2,3,16;
 1/14=-1,18=20,19=15,26=3/3(-5);
 2/9=110/2;
 6/7=2,8=2,9=2,10=2,19=2,28=1/1;
 99/9=1/99;
 -----
 2Naph
 -----
 Symbolic Z-matrix:
 Charge = -1 Multiplicity = 1
 N                     1.22485  -0.18493  -0.07354 
 C                     2.38568  -0.15798  -0.07418 
 C                     4.58394  -1.27113  -0.07535 
 C                     3.81813  -0.09938  -0.07465 
 C                     4.45594   1.13932  -0.0741 
 C                     5.84949   1.20728  -0.0761 
 C                     6.64756   0.03904  -0.07659 
 C                     5.99224  -1.21892  -0.07602 
 C                     6.75895  -2.3986   -0.07624 
 C                     8.15346  -2.35111  -0.07688 
 C                     8.80047  -1.1233   -0.07753 
 C                     8.06453   0.06154  -0.0773 
 N                     9.38257   2.29406  -0.0775 
 C                     8.80475   1.28661  -0.07732 
 H                     4.07749  -2.2367   -0.07507 
 H                     3.87672   2.06227  -0.07505 
 H                     6.30661   2.19726  -0.07764 
 H                     6.27421  -3.37382  -0.07576 
 H                     8.74002  -3.26576  -0.0768 
 

 GradGradGradGradGradGradGradGradGradGradGradGradGradGradGradGradGradGrad
 Berny optimization.
 Initialization pass.
                           ----------------------------
                           !    Initial Parameters    !
                           ! (Angstroms and Degrees)  !
 --------------------------                            --------------------------
 ! Name  Definition              Value          Derivative Info.                !
 --------------------------------------------------------------------------------
 ! R1    R(1,2)                  1.1611         estimate D2E/DX2                !
 ! R2    R(2,4)                  1.4336         estimate D2E/DX2                !
 ! R3    R(3,4)                  1.3998         estimate D2E/DX2                !
 ! R4    R(3,8)                  1.4093         estimate D2E/DX2                !
 ! R5    R(3,15)                 1.0903         estimate D2E/DX2                !
 ! R6    R(4,5)                  1.3933         estimate D2E/DX2                !
 ! R7    R(5,6)                  1.3952         estimate D2E/DX2                !
 ! R8    R(5,16)                 1.0896         estimate D2E/DX2                !
 ! R9    R(6,7)                  1.4148         estimate D2E/DX2                !
 ! R10   R(6,17)                 1.0904         estimate D2E/DX2                !
 ! R11   R(7,8)                  1.4184         estimate D2E/DX2                !
 ! R12   R(7,12)                 1.4171         estimate D2E/DX2                !
 ! R13   R(8,9)                  1.4069         estimate D2E/DX2                !
 ! R14   R(9,10)                 1.3953         estimate D2E/DX2                !
 ! R15   R(9,18)                 1.089          estimate D2E/DX2                !
 ! R16   R(10,11)                1.3879         estimate D2E/DX2                !
 ! R17   R(10,19)                1.0866         estimate D2E/DX2                !
 ! R18   R(11,12)                1.3948         estimate D2E/DX2                !
 ! R19   R(12,14)                1.4313         estimate D2E/DX2                !
 ! R20   R(13,14)                1.1614         estimate D2E/DX2                !
 ! A1    A(4,3,8)              121.0439         estimate D2E/DX2                !
 ! A2    A(4,3,15)             119.1555         estimate D2E/DX2                !
 ! A3    A(8,3,15)             119.8006         estimate D2E/DX2                !
 ! A4    A(2,4,3)              120.8245         estimate D2E/DX2                !
 ! A5    A(2,4,5)              119.5867         estimate D2E/DX2                !
 ! A6    A(3,4,5)              119.5889         estimate D2E/DX2                !
 ! A7    A(4,5,6)              120.0359         estimate D2E/DX2                !
 ! A8    A(4,5,16)             120.6446         estimate D2E/DX2                !
 ! A9    A(6,5,16)             119.3192         estimate D2E/DX2                !
 ! A10   A(5,6,7)              121.5465         estimate D2E/DX2                !
 ! A11   A(5,6,17)             117.577          estimate D2E/DX2                !
 ! A12   A(7,6,17)             120.8765         estimate D2E/DX2                !
 ! A13   A(6,7,8)              118.1447         estimate D2E/DX2                !
 ! A14   A(6,7,12)             123.4288         estimate D2E/DX2                !
 ! A15   A(8,7,12)             118.4265         estimate D2E/DX2                !
 ! A16   A(3,8,7)              119.6399         estimate D2E/DX2                !
 ! A17   A(3,8,9)              120.8979         estimate D2E/DX2                !
 ! A18   A(7,8,9)              119.4622         estimate D2E/DX2                !
 ! A19   A(8,9,10)             121.0706         estimate D2E/DX2                !
 ! A20   A(8,9,18)             120.5489         estimate D2E/DX2                !
 ! A21   A(10,9,18)            118.3805         estimate D2E/DX2                !
 ! A22   A(9,10,11)            119.738          estimate D2E/DX2                !
 ! A23   A(9,10,19)            120.7214         estimate D2E/DX2                !
 ! A24   A(11,10,19)           119.5406         estimate D2E/DX2                !
 ! A25   A(10,11,12)           120.3668         estimate D2E/DX2                !
 ! A26   A(7,12,11)            120.9359         estimate D2E/DX2                !
 ! A27   A(7,12,14)            122.0512         estimate D2E/DX2                !
 ! A28   A(11,12,14)           117.0128         estimate D2E/DX2                !
 ! A29   L(1,2,4,16,-1)        178.9873         estimate D2E/DX2                !
 ! A30   L(12,14,13,16,-1)     178.6948         estimate D2E/DX2                !
 ! A31   L(1,2,4,16,-2)        179.9841         estimate D2E/DX2                !
 ! A32   L(12,14,13,16,-2)     180.0093         estimate D2E/DX2                !
 ! D1    D(8,3,4,2)            179.9902         estimate D2E/DX2                !
 ! D2    D(8,3,4,5)             -0.0243         estimate D2E/DX2                !
 ! D3    D(15,3,4,2)            -0.0281         estimate D2E/DX2                !
 ! D4    D(15,3,4,5)           179.9574         estimate D2E/DX2                !
 ! D5    D(4,3,8,7)             -0.028          estimate D2E/DX2                !
 ! D6    D(4,3,8,9)            179.9771         estimate D2E/DX2                !
 ! D7    D(15,3,8,7)           179.9904         estimate D2E/DX2                !
 ! D8    D(15,3,8,9)            -0.0045         estimate D2E/DX2                !
 ! D9    D(2,4,5,6)           -179.9265         estimate D2E/DX2                !
 ! D10   D(2,4,5,16)            -0.1059         estimate D2E/DX2                !
 ! D11   D(3,4,5,6)              0.0878         estimate D2E/DX2                !
 ! D12   D(3,4,5,16)           179.9084         estimate D2E/DX2                !
 ! D13   D(4,5,6,7)             -0.1008         estimate D2E/DX2                !
 ! D14   D(4,5,6,17)           179.878          estimate D2E/DX2                !
 ! D15   D(16,5,6,7)          -179.9237         estimate D2E/DX2                !
 ! D16   D(16,5,6,17)            0.055          estimate D2E/DX2                !
 ! D17   D(5,6,7,8)              0.0475         estimate D2E/DX2                !
 ! D18   D(5,6,7,12)          -179.9371         estimate D2E/DX2                !
 ! D19   D(17,6,7,8)          -179.9306         estimate D2E/DX2                !
 ! D20   D(17,6,7,12)            0.0848         estimate D2E/DX2                !
 ! D21   D(6,7,8,3)              0.0166         estimate D2E/DX2                !
 ! D22   D(6,7,8,9)           -179.9885         estimate D2E/DX2                !
 ! D23   D(12,7,8,3)          -179.9981         estimate D2E/DX2                !
 ! D24   D(12,7,8,9)            -0.0031         estimate D2E/DX2                !
 ! D25   D(6,7,12,11)          179.989          estimate D2E/DX2                !
 ! D26   D(6,7,12,14)            0.0122         estimate D2E/DX2                !
 ! D27   D(8,7,12,11)            0.0045         estimate D2E/DX2                !
 ! D28   D(8,7,12,14)         -179.9723         estimate D2E/DX2                !
 ! D29   D(3,8,9,10)          -179.9989         estimate D2E/DX2                !
 ! D30   D(3,8,9,18)            -0.0082         estimate D2E/DX2                !
 ! D31   D(7,8,9,10)             0.0062         estimate D2E/DX2                !
 ! D32   D(7,8,9,18)           179.9969         estimate D2E/DX2                !
 ! D33   D(8,9,10,11)           -0.0105         estimate D2E/DX2                !
 ! D34   D(8,9,10,19)          179.9849         estimate D2E/DX2                !
 ! D35   D(18,9,10,11)         179.9986         estimate D2E/DX2                !
 ! D36   D(18,9,10,19)          -0.006          estimate D2E/DX2                !
 ! D37   D(9,10,11,12)           0.0117         estimate D2E/DX2                !
 ! D38   D(19,10,11,12)       -179.9837         estimate D2E/DX2                !
 ! D39   D(10,11,12,7)          -0.0088         estimate D2E/DX2                !
 ! D40   D(10,11,12,14)        179.9691         estimate D2E/DX2                !
 --------------------------------------------------------------------------------
 Trust Radius=3.00D-01 FncErr=1.00D-07 GrdErr=1.00D-06
 Number of steps in this run=    102 maximum allowed number of steps=    114.
 GradGradGradGradGradGradGradGradGradGradGradGradGradGradGradGradGradGrad

                          Input orientation:                          
 ---------------------------------------------------------------------
 Center     Atomic      Atomic             Coordinates (Angstroms)
 Number     Number       Type             X           Y           Z
 ---------------------------------------------------------------------
      1          7           0        1.224850   -0.184930   -0.073540
      2          6           0        2.385680   -0.157980   -0.074180
      3          6           0        4.583940   -1.271130   -0.075350
      4          6           0        3.818130   -0.099380   -0.074650
      5          6           0        4.455940    1.139320   -0.074100
      6          6           0        5.849490    1.207280   -0.076100
      7          6           0        6.647560    0.039040   -0.076590
      8          6           0        5.992240   -1.218920   -0.076020
      9          6           0        6.758950   -2.398600   -0.076240
     10          6           0        8.153460   -2.351110   -0.076880
     11          6           0        8.800470   -1.123300   -0.077530
     12          6           0        8.064530    0.061540   -0.077300
     13          7           0        9.382570    2.294060   -0.077500
     14          6           0        8.804750    1.286610   -0.077320
     15          1           0        4.077490   -2.236700   -0.075070
     16          1           0        3.876720    2.062270   -0.075050
     17          1           0        6.306610    2.197260   -0.077640
     18          1           0        6.274210   -3.373820   -0.075760
     19          1           0        8.740020   -3.265760   -0.076800
 ---------------------------------------------------------------------
                    Distance matrix (angstroms):
                    1          2          3          4          5
     1  N    0.000000
     2  C    1.161143   0.000000
     3  C    3.530343   2.464032   0.000000
     4  C    2.594691   1.433648   1.399808   0.000000
     5  C    3.491931   2.443146   2.413846   1.393262   0.000000
     6  C    4.829653   3.723160   2.782828   2.415323   1.395208
     7  C    5.427334   4.266432   2.444397   2.832814   2.452309
     8  C    4.878232   3.759371   1.409268   2.445430   2.814519
     9  C    5.960420   4.913845   2.449869   3.732940   4.221462
    10  C    7.259338   6.170665   3.729321   4.885220   5.084758
    11  C    7.633516   6.487017   4.219121   5.086466   4.898408
    12  C    6.844120   5.683092   3.726999   4.249449   3.766104
    13  N    8.526066   7.414107   5.978079   6.057356   5.060150
    14  C    7.721420   6.579613   4.935309   5.175650   4.351305
    15  H    3.513875   2.680168   1.090329   2.152999   3.397166
    16  H    3.475964   2.674455   3.407597   2.162444   1.089648
    17  H    5.612409   4.573933   3.872638   3.386310   2.131720
    18  H    5.972023   5.046018   2.697836   4.093200   4.865649
    19  H    8.122149   7.073609   4.609941   5.852433   6.144760
                    6          7          8          9         10
     6  C    0.000000
     7  C    1.414815   0.000000
     8  C    2.430396   1.418417   0.000000
     9  C    3.718802   2.440184   1.406943   0.000000
    10  C    4.239153   2.824987   2.439821   1.395319   0.000000
    11  C    3.760304   2.446642   2.809858   2.407114   1.387854
    12  C    2.493817   1.417149   2.435973   2.785108   2.414288
    13  N    3.696451   3.544770   4.882148   5.376285   4.805030
    14  C    2.956325   2.491967   3.766682   4.214982   3.695563
    15  H    3.873110   3.432820   2.168443   2.686343   4.077576
    16  H    2.150077   3.430891   3.904053   5.310990   6.145603
    17  H    1.090423   2.184985   3.430615   4.618067   4.909025
    18  H    4.600746   3.433221   2.173270   1.089049   2.139513
    19  H    5.325716   3.911533   3.426346   2.162546   1.086571
                   11         12         13         14         15
    11  C    0.000000
    12  C    1.394795   0.000000
    13  N    3.466582   2.592561   0.000000
    14  C    2.409914   1.431336   1.161392   0.000000
    15  H    4.852443   4.602000   6.976508   5.895821   0.000000
    16  H    5.864399   4.641194   5.510727   4.988701   4.303656
    17  H    4.152765   2.766149   3.077483   2.658945   4.962760
    18  H    3.383317   3.873880   6.464269   5.303135   2.473585
    19  H    2.143313   3.395175   5.596827   4.552830   4.774741
                   16         17         18         19
    16  H    0.000000
    17  H    2.433638   0.000000
    18  H    5.941299   5.571175   0.000000
    19  H    7.213847   5.980474   2.468177   0.000000
 Stoichiometry    C12H5N2(1-)
 Framework group  C1[X(C12H5N2)]
 Deg. of freedom    51
 Full point group                 C1      NOp   1
 Largest Abelian subgroup         C1      NOp   1
 Largest concise Abelian subgroup C1      NOp   1
                         Standard orientation:                         
 ---------------------------------------------------------------------
 Center     Atomic      Atomic             Coordinates (Angstroms)
 Number     Number       Type             X           Y           Z
 ---------------------------------------------------------------------
      1          7           0       -4.804972   -0.273997    0.000108
      2          6           0       -3.644297   -0.241028    0.000142
      3          6           0       -1.506388    0.984042    0.000153
      4          6           0       -2.210732   -0.225654   -0.000136
      5          6           0       -1.509870   -1.429802   -0.001008
      6          6           0       -0.114669   -1.425782    0.000264
      7          6           0        0.622072   -0.217927    0.000327
      8          6           0       -0.097270    1.004552    0.000088
      9          6           0        0.607563    2.222213   -0.000103
     10          6           0        2.002666    2.246725   -0.000191
     11          6           0        2.712154    1.053927    0.000131
     12          6           0        2.038316   -0.167300    0.000296
     13          7           0        3.469770   -2.328854   -0.000173
     14          6           0        2.840748   -1.352553   -0.000060
     15          1           0       -2.061975    1.922200    0.000130
     16          1           0       -2.040706   -2.381403    0.000252
     17          1           0        0.392913   -2.390862    0.001574
     18          1           0        0.073160    3.171128   -0.000338
     19          1           0        2.541261    3.190416   -0.000586
 ---------------------------------------------------------------------
 Rotational constants (GHZ):      1.4759334      0.4713619      0.3572642
 Standard basis: STO-3G (5D, 7F)
 There are    75 symmetry adapted cartesian basis functions of A   symmetry.
 There are    75 symmetry adapted basis functions of A   symmetry.
    75 basis functions,   225 primitive gaussians,    75 cartesian basis functions
    46 alpha electrons       46 beta electrons
       nuclear repulsion energy       705.7470384229 Hartrees.
 NAtoms=   19 NActive=   19 NUniq=   19 SFac= 1.00D+00 NAtFMM=   60 NAOKFM=F Big=F
 Integral buffers will be    131072 words long.
 Raffenetti 2 integral format.
 Two-electron integral symmetry is turned on.
 One-electron integrals computed using PRISM.
 NBasis=    75 RedAO= T EigKep=  1.55D-01  NBF=    75
 NBsUse=    75 1.00D-06 EigRej= -1.00D+00 NBFU=    75
 ExpMin= 1.69D-01 ExpMax= 9.91D+01 ExpMxC= 9.91D+01 IAcc=1 IRadAn=         1 AccDes= 0.00D+00
 Harris functional with IExCor=  402 and IRadAn=       1 diagonalized for initial guess.
 HarFok:  IExCor=  402 AccDes= 0.00D+00 IRadAn=         1 IDoV= 1 UseB2=F ITyADJ=14
 ICtDFT=  3500011 ScaDFX=  1.000000  1.000000  1.000000  1.000000
 FoFCou: FMM=F IPFlag=           0 FMFlag=      100000 FMFlg1=           0
         NFxFlg=           0 DoJE=T BraDBF=F KetDBF=T FulRan=T
         wScrn=  0.000000 ICntrl=     500 IOpCl=  0 I1Cent=   200000004 NGrid=           0
         NMat0=    1 NMatS0=      1 NMatT0=    0 NMatD0=    1 NMtDS0=    0 NMtDT0=    0
 Petite list used in FoFCou.
 Keep R1 ints in memory in canonical form, NReq=4993994.
 Requested convergence on RMS density matrix=1.00D-08 within 128 cycles.
 Requested convergence on MAX density matrix=1.00D-06.
 Requested convergence on             energy=1.00D-06.
 No special actions if energy rises.
 Integral accuracy reduced to 1.0D-05 until final iterations.
 EnCoef did     7 forward-backward iterations
 EnCoef did   100 forward-backward iterations
 Problem detected with inexpensive integrals.
 Switching to full accuracy and repeating last cycle.
 SCF Done:  E(RB3LYP) =  -562.487246556     A.U. after   30 cycles
            NFock= 30  Conv=0.55D-08     -V/T= 2.0128

 **********************************************************************

            Population analysis using the SCF density.

 **********************************************************************

 Orbital symmetries:
       Occupied  (A) (A) (A) (A) (A) (A) (A) (A) (A) (A) (A) (A)
                 (A) (A) (A) (A) (A) (A) (A) (A) (A) (A) (A) (A)
                 (A) (A) (A) (A) (A) (A) (A) (A) (A) (A) (A) (A)
                 (A) (A) (A) (A) (A) (A) (A) (A) (A) (A)
       Virtual   (A) (A) (A) (A) (A) (A) (A) (A) (A) (A) (A) (A)
                 (A) (A) (A) (A) (A) (A) (A) (A) (A) (A) (A) (A)
                 (A) (A) (A) (A) (A)
 The electronic state is 1-A.
 Alpha  occ. eigenvalues --  -14.00414 -13.93452  -9.91236  -9.91055  -9.89014
 Alpha  occ. eigenvalues --   -9.88331  -9.87472  -9.87037  -9.86937  -9.84751
 Alpha  occ. eigenvalues --   -9.84550  -9.82695  -9.81636  -9.65096  -0.75555
 Alpha  occ. eigenvalues --   -0.69945  -0.69139  -0.63220  -0.59449  -0.54854
 Alpha  occ. eigenvalues --   -0.53196  -0.44842  -0.43497  -0.42062  -0.36479
 Alpha  occ. eigenvalues --   -0.31884  -0.31285  -0.27975  -0.26467  -0.24454
 Alpha  occ. eigenvalues --   -0.22646  -0.21673  -0.19767  -0.18570  -0.18420
 Alpha  occ. eigenvalues --   -0.15894  -0.15762  -0.14278  -0.14050  -0.11432
 Alpha  occ. eigenvalues --   -0.10808  -0.08940  -0.07945  -0.03182   0.00993
 Alpha  occ. eigenvalues --    0.14704
 Alpha virt. eigenvalues --    0.17180   0.19977   0.26194   0.26377   0.31112
 Alpha virt. eigenvalues --    0.32314   0.35783   0.39507   0.44174   0.49174
 Alpha virt. eigenvalues --    0.50333   0.52372   0.55353   0.56813   0.58193
 Alpha virt. eigenvalues --    0.60774   0.62695   0.65918   0.69439   0.72232
 Alpha virt. eigenvalues --    0.74517   0.77788   0.80418   0.85741   0.88868
 Alpha virt. eigenvalues --    0.97797   0.98956   1.13143   1.19527
          Condensed to atoms (all electrons):
               1          2          3          4          5          6
     1  N    6.574592   0.687493  -0.000132  -0.011561  -0.000168  -0.000001
     2  C    0.687493   4.892509  -0.030288   0.429209  -0.032392   0.001052
     3  C   -0.000132  -0.030288   4.823472   0.505136  -0.031733  -0.012122
     4  C   -0.011561   0.429209   0.505136   4.760238   0.480962  -0.031126
     5  C   -0.000168  -0.032392  -0.031733   0.480962   4.825285   0.521442
     6  C   -0.000001   0.001052  -0.012122  -0.031126   0.521442   4.834122
     7  C    0.000000   0.000012  -0.028156  -0.009682  -0.027535   0.471133
     8  C   -0.000001   0.000950   0.488839  -0.029022  -0.010060  -0.029823
     9  C    0.000000  -0.000007  -0.032290   0.000919   0.000037   0.001031
    10  C    0.000000   0.000000   0.000867  -0.000009   0.000000   0.000043
    11  C    0.000000   0.000000   0.000006   0.000000  -0.000012   0.000955
    12  C    0.000000   0.000000   0.000935   0.000038   0.000818  -0.028325
    13  N    0.000000   0.000000   0.000000   0.000000   0.000001  -0.000118
    14  C    0.000000   0.000000  -0.000008   0.000000   0.000006  -0.003905
    15  H    0.000065  -0.003765   0.389017  -0.026534   0.001439   0.000047
    16  H    0.000062  -0.003821   0.001422  -0.025946   0.390384  -0.025503
    17  H    0.000000  -0.000021   0.000044   0.001520  -0.028109   0.389791
    18  H    0.000000  -0.000001  -0.004309   0.000024  -0.000001  -0.000018
    19  H    0.000000   0.000000  -0.000022   0.000000   0.000000   0.000002
               7          8          9         10         11         12
     1  N    0.000000  -0.000001   0.000000   0.000000   0.000000   0.000000
     2  C    0.000012   0.000950  -0.000007   0.000000   0.000000   0.000000
     3  C   -0.028156   0.488839  -0.032290   0.000867   0.000006   0.000935
     4  C   -0.009682  -0.029022   0.000919  -0.000009   0.000000   0.000038
     5  C   -0.027535  -0.010060   0.000037   0.000000  -0.000012   0.000818
     6  C    0.471133  -0.029823   0.001031   0.000043   0.000955  -0.028325
     7  C    4.804642   0.467931  -0.029278  -0.011507  -0.028539   0.458422
     8  C    0.467931   4.783170   0.478932  -0.029807  -0.011638  -0.032955
     9  C   -0.029278   0.478932   4.870299   0.506618  -0.029663  -0.013675
    10  C   -0.011507  -0.029807   0.506618   4.862773   0.460010  -0.029486
    11  C   -0.028539  -0.011638  -0.029663   0.460010   5.424581   0.479731
    12  C    0.458422  -0.032955  -0.013675  -0.029486   0.479731   4.836546
    13  N    0.000051  -0.000001   0.000000  -0.000002  -0.000141  -0.011520
    14  C   -0.038025   0.000858  -0.000018   0.001456  -0.038646   0.422614
    15  H    0.001379  -0.024731  -0.004112   0.000025   0.000000  -0.000019
    16  H    0.001399   0.000033   0.000001   0.000000   0.000000  -0.000017
    17  H   -0.024655   0.001386  -0.000020   0.000000   0.000026  -0.003624
    18  H    0.001350  -0.027034   0.380925  -0.026857   0.001743   0.000106
    19  H   -0.000061   0.001334  -0.033926   0.386187  -0.037208   0.002170
              13         14         15         16         17         18
     1  N    0.000000   0.000000   0.000065   0.000062   0.000000   0.000000
     2  C    0.000000   0.000000  -0.003765  -0.003821  -0.000021  -0.000001
     3  C    0.000000  -0.000008   0.389017   0.001422   0.000044  -0.004309
     4  C    0.000000   0.000000  -0.026534  -0.025946   0.001520   0.000024
     5  C    0.000001   0.000006   0.001439   0.390384  -0.028109  -0.000001
     6  C   -0.000118  -0.003905   0.000047  -0.025503   0.389791  -0.000018
     7  C    0.000051  -0.038025   0.001379   0.001399  -0.024655   0.001350
     8  C   -0.000001   0.000858  -0.024731   0.000033   0.001386  -0.027034
     9  C    0.000000  -0.000018  -0.004112   0.000001  -0.000020   0.380925
    10  C   -0.000002   0.001456   0.000025   0.000000   0.000000  -0.026857
    11  C   -0.000141  -0.038646   0.000000   0.000000   0.000026   0.001743
    12  C   -0.011520   0.422614  -0.000019  -0.000017  -0.003624   0.000106
    13  N    6.617409   0.684569   0.000000   0.000000  -0.000096   0.000000
    14  C    0.684569   4.913742   0.000000   0.000000   0.001596   0.000002
    15  H    0.000000   0.000000   0.598270  -0.000039   0.000002   0.000975
    16  H    0.000000   0.000000  -0.000039   0.602146  -0.004248   0.000000
    17  H   -0.000096   0.001596   0.000002  -0.004248   0.594675   0.000001
    18  H    0.000000   0.000002   0.000975   0.000000   0.000001   0.635751
    19  H    0.000000  -0.000005  -0.000002   0.000000   0.000000  -0.002925
              19
     1  N    0.000000
     2  C    0.000000
     3  C   -0.000022
     4  C    0.000000
     5  C    0.000000
     6  C    0.000002
     7  C   -0.000061
     8  C    0.001334
     9  C   -0.033926
    10  C    0.386187
    11  C   -0.037208
    12  C    0.002170
    13  N    0.000000
    14  C   -0.000005
    15  H   -0.000002
    16  H    0.000000
    17  H    0.000000
    18  H   -0.002925
    19  H    0.652728
 Mulliken charges:
               1
     1  N   -0.250349
     2  C    0.059069
     3  C   -0.070678
     4  C   -0.044166
     5  C   -0.090363
     6  C   -0.088677
     7  C   -0.008882
     8  C   -0.028359
     9  C   -0.095772
    10  C   -0.120310
    11  C   -0.221207
    12  C   -0.081760
    13  N   -0.290152
    14  C    0.055764
    15  H    0.067983
    16  H    0.064128
    17  H    0.071733
    18  H    0.040268
    19  H    0.031729
 Sum of Mulliken charges =  -1.00000
 Mulliken charges with hydrogens summed into heavy atoms:
               1
     1  N   -0.250349
     2  C    0.059069
     3  C   -0.002695
     4  C   -0.044166
     5  C   -0.026235
     6  C   -0.016944
     7  C   -0.008882
     8  C   -0.028359
     9  C   -0.055504
    10  C   -0.088581
    11  C   -0.221207
    12  C   -0.081760
    13  N   -0.290152
    14  C    0.055764
 Electronic spatial extent (au):  <R**2>=           2836.9017
 Charge=             -1.0000 electrons
 Dipole moment (field-independent basis, Debye):
    X=             -5.1528    Y=              1.0382    Z=              0.0007  Tot=              5.2564
 Quadrupole moment (field-independent basis, Debye-Ang):
   XX=           -140.6720   YY=            -84.1395   ZZ=            -73.8000
   XY=              3.4649   XZ=             -0.0018   YZ=             -0.0042
 Traceless Quadrupole moment (field-independent basis, Debye-Ang):
   XX=            -41.1348   YY=             15.3977   ZZ=             25.7372
   XY=              3.4649   XZ=             -0.0018   YZ=             -0.0042
 Octapole moment (field-independent basis, Debye-Ang**2):
  XXX=             27.1190  YYY=             12.6049  ZZZ=              0.0004  XYY=            -49.9773
  XXY=             33.4528  XXZ=             -0.0061  XZZ=             -0.9130  YZZ=             -2.4368
  YYZ=              0.0098  XYZ=             -0.0028
 Hexadecapole moment (field-independent basis, Debye-Ang**3):
 XXXX=          -3936.0248 YYYY=          -1000.7975 ZZZZ=            -57.9596 XXXY=             44.4417
 XXXZ=             -0.0042 YYYX=             71.3827 YYYZ=             -0.0305 ZZZX=             -0.0048
 ZZZY=             -0.0002 XXYY=           -735.2468 XXZZ=           -437.0567 YYZZ=           -172.0025
 XXYZ=             -0.0254 YYXZ=              0.0015 ZZXY=             -6.3360
 N-N= 7.057470384229D+02 E-N=-2.733576926780D+03  KE= 5.553511849459D+02
 Calling FoFJK, ICntrl=      2127 FMM=F ISym2X=0 I1Cent= 0 IOpClX= 0 NMat=1 NMatS=1 NMatT=0.
 ***** Axes restored to original set *****
 -------------------------------------------------------------------
 Center     Atomic                   Forces (Hartrees/Bohr)
 Number     Number              X              Y              Z
 -------------------------------------------------------------------
      1        7          -0.100870492   -0.002878081    0.000039929
      2        6           0.078101121    0.000396437   -0.000011086
      3        6          -0.011790359    0.000044719    0.000017788
      4        6          -0.007035426   -0.027471873    0.000076986
      5        6           0.032798270    0.034529801   -0.000275297
      6        6          -0.031242653    0.014577052    0.000067482
      7        6           0.000802746    0.032714667    0.000056753
      8        6          -0.020319270   -0.010623761    0.000014010
      9        6           0.031312765   -0.042623487   -0.000026942
     10        6          -0.050616725    0.003961519    0.000035957
     11        6           0.089316825    0.030033948   -0.000091861
     12        6          -0.005635845   -0.042422863    0.000022794
     13        7           0.054478641    0.086887547    0.000001318
     14        6          -0.047240638   -0.055222247   -0.000047742
     15        1          -0.002020809   -0.006345282   -0.000018980
     16        1          -0.005456128    0.004079101    0.000070974
     17        1           0.007486404    0.003468589    0.000046462
     18        1          -0.013910636   -0.005499361   -0.000009089
     19        1           0.001842207   -0.017606425    0.000030542
 -------------------------------------------------------------------
 Cartesian Forces:  Max     0.100870492 RMS     0.031023524

 GradGradGradGradGradGradGradGradGradGradGradGradGradGradGradGradGradGrad
 Berny optimization.
 FormGI is forming the generalized inverse of G from B-inverse, IUseBI=4.
 Internal  Forces:  Max     0.102474851 RMS     0.020440264
 Search for a local minimum.
 Step number   1 out of a maximum of  102
 All quantities printed in internal units (Hartrees-Bohrs-Radians)
 Mixed Optimization -- RFO/linear search
 Second derivative matrix not updated -- first step.
 ITU=  0
     Eigenvalues ---    0.01644   0.01644   0.01888   0.01893   0.01930
     Eigenvalues ---    0.01957   0.02016   0.02021   0.02027   0.02041
     Eigenvalues ---    0.02070   0.02131   0.02136   0.02166   0.02170
     Eigenvalues ---    0.02190   0.04848   0.04848   0.16000   0.16000
     Eigenvalues ---    0.16000   0.16000   0.16000   0.22320   0.22558
     Eigenvalues ---    0.23511   0.24380   0.24681   0.25000   0.25000
     Eigenvalues ---    0.25000   0.34764   0.34775   0.34853   0.34923
     Eigenvalues ---    0.35212   0.38434   0.40409   0.40470   0.40798
     Eigenvalues ---    0.40920   0.43047   0.43558   0.44879   0.45386
     Eigenvalues ---    0.45537   0.45852   0.46403   0.47128   1.26887
     Eigenvalues ---    1.27049
 RFO step:  Lambda=-5.82217689D-02 EMin= 1.64365445D-02
 Linear search not attempted -- first point.
 Maximum step size (   0.300) exceeded in Quadratic search.
    -- Step size scaled by   0.844
 Iteration  1 RMS(Cart)=  0.04282628 RMS(Int)=  0.00089741
 Iteration  2 RMS(Cart)=  0.00149054 RMS(Int)=  0.00023130
 Iteration  3 RMS(Cart)=  0.00000077 RMS(Int)=  0.00023130
 Variable       Old X    -DE/DX   Delta X   Delta X   Delta X     New X
                                 (Linear)    (Quad)   (Total)
    R1        2.19424   0.10091   0.00000   0.06410   0.06410   2.25834
    R2        2.70920   0.02285   0.00000   0.04166   0.04166   2.75087
    R3        2.64525   0.01059   0.00000   0.01758   0.01759   2.66285
    R4        2.66313   0.01938   0.00000   0.03298   0.03295   2.69608
    R5        2.06042   0.00656   0.00000   0.01363   0.01363   2.07406
    R6        2.63288   0.04562   0.00000   0.07322   0.07328   2.70616
    R7        2.63656  -0.00320   0.00000  -0.00539  -0.00535   2.63121
    R8        2.05914   0.00636   0.00000   0.01319   0.01319   2.07232
    R9        2.67361   0.02625   0.00000   0.04493   0.04491   2.71852
   R10        2.06060   0.00629   0.00000   0.01308   0.01308   2.07368
   R11        2.68042   0.03532   0.00000   0.06146   0.06103   2.74145
   R12        2.67802   0.03681   0.00000   0.06484   0.06496   2.74298
   R13        2.65874   0.03132   0.00000   0.05153   0.05106   2.70979
   R14        2.63677   0.00587   0.00000   0.00851   0.00842   2.64519
   R15        2.05800   0.01112   0.00000   0.02303   0.02303   2.08103
   R16        2.62266   0.05957   0.00000   0.09393   0.09429   2.71695
   R17        2.05332   0.01582   0.00000   0.03253   0.03253   2.08585
   R18        2.63578   0.02635   0.00000   0.04347   0.04394   2.67972
   R19        2.70483   0.03084   0.00000   0.05584   0.05584   2.76067
   R20        2.19471   0.10247   0.00000   0.06517   0.06517   2.25989
    A1        2.11261   0.00086   0.00000   0.00297   0.00283   2.11544
    A2        2.07966   0.00076   0.00000   0.00313   0.00320   2.08285
    A3        2.09091  -0.00162   0.00000  -0.00609  -0.00603   2.08489
    A4        2.10878  -0.00194   0.00000  -0.00528  -0.00526   2.10352
    A5        2.08718   0.00343   0.00000   0.00942   0.00944   2.09662
    A6        2.08722  -0.00148   0.00000  -0.00414  -0.00418   2.08304
    A7        2.09502   0.00145   0.00000   0.00348   0.00345   2.09847
    A8        2.10564  -0.00325   0.00000  -0.01150  -0.01149   2.09415
    A9        2.08251   0.00180   0.00000   0.00803   0.00804   2.09056
   A10        2.12139   0.00266   0.00000   0.00678   0.00669   2.12808
   A11        2.05211   0.00417   0.00000   0.01790   0.01795   2.07005
   A12        2.10969  -0.00684   0.00000  -0.02468  -0.02464   2.08506
   A13        2.06201  -0.00271   0.00000  -0.00844  -0.00843   2.05358
   A14        2.15424   0.00635   0.00000   0.01752   0.01782   2.17206
   A15        2.06693  -0.00363   0.00000  -0.00908  -0.00939   2.05754
   A16        2.08811  -0.00077   0.00000  -0.00065  -0.00036   2.08775
   A17        2.11007   0.00570   0.00000   0.01707   0.01768   2.12775
   A18        2.08501  -0.00493   0.00000  -0.01642  -0.01733   2.06768
   A19        2.11308  -0.00264   0.00000  -0.01313  -0.01382   2.09926
   A20        2.10398  -0.00898   0.00000  -0.03327  -0.03292   2.07105
   A21        2.06613   0.01162   0.00000   0.04640   0.04675   2.11288
   A22        2.08982   0.02926   0.00000   0.08547   0.08565   2.17547
   A23        2.10699  -0.02280   0.00000  -0.07432  -0.07441   2.03258
   A24        2.08638  -0.00647   0.00000  -0.01115  -0.01124   2.07514
   A25        2.10080  -0.04141   0.00000  -0.11287  -0.11164   1.98916
   A26        2.11073   0.02335   0.00000   0.06603   0.06653   2.17726
   A27        2.13020  -0.02102   0.00000  -0.05861  -0.05886   2.07134
   A28        2.04226  -0.00233   0.00000  -0.00742  -0.00767   2.03459
   A29        3.12392   0.00118   0.00000   0.01328   0.01328   3.13720
   A30        3.11881   0.00884   0.00000   0.06995   0.06995   3.18876
   A31        3.14132   0.00003   0.00000   0.00032   0.00032   3.14163
   A32        3.14176  -0.00004   0.00000  -0.00031  -0.00031   3.14145
    D1        3.14142   0.00001   0.00000   0.00011   0.00011   3.14153
    D2       -0.00042   0.00003   0.00000   0.00024   0.00023  -0.00019
    D3       -0.00049   0.00002   0.00000   0.00017   0.00017  -0.00032
    D4        3.14085   0.00003   0.00000   0.00030   0.00029   3.14114
    D5       -0.00049   0.00001   0.00000   0.00013   0.00013  -0.00036
    D6        3.14119   0.00001   0.00000   0.00007   0.00007   3.14126
    D7        3.14142   0.00001   0.00000   0.00007   0.00007   3.14149
    D8       -0.00008   0.00000   0.00000   0.00001   0.00001  -0.00007
    D9       -3.14031  -0.00004   0.00000  -0.00044  -0.00044  -3.14075
   D10       -0.00185   0.00005   0.00000   0.00049   0.00048  -0.00137
   D11        0.00153  -0.00005   0.00000  -0.00056  -0.00056   0.00097
   D12        3.13999   0.00004   0.00000   0.00036   0.00036   3.14035
   D13       -0.00176   0.00005   0.00000   0.00056   0.00056  -0.00120
   D14        3.13946   0.00006   0.00000   0.00063   0.00064   3.14010
   D15       -3.14026  -0.00003   0.00000  -0.00033  -0.00033  -3.14059
   D16        0.00096  -0.00002   0.00000  -0.00025  -0.00025   0.00071
   D17        0.00083  -0.00002   0.00000  -0.00020  -0.00020   0.00063
   D18       -3.14049  -0.00004   0.00000  -0.00042  -0.00042  -3.14092
   D19       -3.14038  -0.00003   0.00000  -0.00029  -0.00029  -3.14067
   D20        0.00148  -0.00004   0.00000  -0.00051  -0.00051   0.00097
   D21        0.00029  -0.00001   0.00000  -0.00013  -0.00014   0.00015
   D22       -3.14139  -0.00001   0.00000  -0.00008  -0.00008  -3.14147
   D23       -3.14156   0.00001   0.00000   0.00008   0.00008  -3.14148
   D24       -0.00005   0.00001   0.00000   0.00014   0.00013   0.00008
   D25        3.14140   0.00001   0.00000   0.00010   0.00010   3.14150
   D26        0.00021  -0.00002   0.00000  -0.00022  -0.00022   0.00000
   D27        0.00008  -0.00001   0.00000  -0.00013  -0.00012  -0.00005
   D28       -3.14111  -0.00004   0.00000  -0.00045  -0.00044  -3.14155
   D29       -3.14157   0.00001   0.00000   0.00009   0.00009  -3.14149
   D30       -0.00014   0.00000   0.00000   0.00005   0.00004  -0.00010
   D31        0.00011   0.00000   0.00000   0.00004   0.00003   0.00014
   D32        3.14154   0.00000   0.00000  -0.00001  -0.00001   3.14152
   D33       -0.00018  -0.00002   0.00000  -0.00023  -0.00024  -0.00042
   D34        3.14133  -0.00002   0.00000  -0.00017  -0.00017   3.14115
   D35        3.14157  -0.00002   0.00000  -0.00018  -0.00018   3.14138
   D36       -0.00011  -0.00001   0.00000  -0.00012  -0.00012  -0.00023
   D37        0.00020   0.00002   0.00000   0.00022   0.00023   0.00043
   D38       -3.14131   0.00002   0.00000   0.00017   0.00017  -3.14114
   D39       -0.00015   0.00000   0.00000  -0.00004  -0.00004  -0.00019
   D40        3.14105   0.00002   0.00000   0.00025   0.00026   3.14131
         Item               Value     Threshold  Converged?
 Maximum Force            0.102475     0.000450     NO 
 RMS     Force            0.020440     0.000300     NO 
 Maximum Displacement     0.223605     0.001800     NO 
 RMS     Displacement     0.042354     0.001200     NO 
 Predicted change in Energy=-3.101716D-02
 GradGradGradGradGradGradGradGradGradGradGradGradGradGradGradGradGradGrad

                          Input orientation:                          
 ---------------------------------------------------------------------
 Center     Atomic      Atomic             Coordinates (Angstroms)
 Number     Number       Type             X           Y           Z
 ---------------------------------------------------------------------
      1          7           0        1.139368   -0.207142   -0.073610
      2          6           0        2.333567   -0.161702   -0.074058
      3          6           0        4.554459   -1.282373   -0.075339
      4          6           0        3.787953   -0.099967   -0.074652
      5          6           0        4.453558    1.167986   -0.074383
      6          6           0        5.844567    1.229614   -0.075960
      7          6           0        6.658697    0.043567   -0.076427
      8          6           0        5.980498   -1.238860   -0.076000
      9          6           0        6.775265   -2.432421   -0.076302
     10          6           0        8.172605   -2.349889   -0.076823
     11          6           0        8.918797   -1.120937   -0.077595
     12          6           0        8.110221    0.043994   -0.077239
     13          7           0        9.433369    2.346992   -0.077808
     14          6           0        8.810928    1.325867   -0.077626
     15          1           0        4.044146   -2.254064   -0.075114
     16          1           0        3.867299    2.094750   -0.075026
     17          1           0        6.326788    2.215323   -0.077147
     18          1           0        6.263729   -3.407638   -0.075914
     19          1           0        8.721797   -3.307350   -0.076598
 ---------------------------------------------------------------------
                    Distance matrix (angstroms):
                    1          2          3          4          5
     1  N    0.000000
     2  C    1.195063   0.000000
     3  C    3.580359   2.487623   0.000000
     4  C    2.650753   1.455696   1.409119   0.000000
     5  C    3.588152   2.502485   2.452437   1.432039   0.000000
     6  C    4.919672   3.776624   2.823909   2.448969   1.392375
     7  C    5.525021   4.329999   2.487155   2.874330   2.475270
     8  C    4.949847   3.802681   1.426703   2.470695   2.850344
     9  C    6.059308   4.988472   2.500919   3.790037   4.284071
    10  C    7.352401   6.235587   3.772344   4.928217   5.119255
    11  C    7.832914   6.654727   4.367323   5.231438   5.017723
    12  C    6.975376   5.780316   3.795089   4.324665   3.825514
    13  N    8.678368   7.529990   6.080795   6.152913   5.117478
    14  C    7.823232   6.645982   4.992039   5.221426   4.360231
    15  H    3.553537   2.702602   1.097544   2.169278   3.446454
    16  H    3.569358   2.728353   3.446324   2.196151   1.096627
    17  H    5.725179   4.647157   3.921101   3.436023   2.146139
    18  H    6.041709   5.097281   2.727334   4.131604   4.920676
    19  H    8.191735   7.120715   4.633275   5.884736   6.184376
                    6          7          8          9         10
     6  C    0.000000
     7  C    1.438581   0.000000
     8  C    2.472215   1.450715   0.000000
     9  C    3.778453   2.478731   1.433961   0.000000
    10  C    4.269966   2.832058   2.457584   1.399775   0.000000
    11  C    3.869881   2.542464   2.940665   2.512910   1.437750
    12  C    2.557124   1.451525   2.486250   2.813315   2.394695
    13  N    3.758727   3.606185   4.978017   5.468849   4.863149
    14  C    2.967922   2.505273   3.819576   4.274184   3.730769
    15  H    3.921420   3.480659   2.186344   2.736937   4.129572
    16  H    2.158251   3.463994   3.946969   5.380664   6.187930
    17  H    1.097342   2.196972   3.471498   4.669332   4.924246
    18  H    4.656158   3.473732   2.187193   1.101234   2.182348
    19  H    5.372382   3.935102   3.434147   2.134124   1.103785
                   11         12         13         14         15
    11  C    0.000000
    12  C    1.418047   0.000000
    13  N    3.505898   2.656035   0.000000
    14  C    2.449180   1.460886   1.195880   0.000000
    15  H    5.004618   4.670550   7.086145   5.961386   0.000000
    16  H    5.988178   4.712536   5.571783   5.003064   4.352408
    17  H    4.224824   2.809859   3.109370   2.638576   5.018553
    18  H    3.504053   3.914498   6.569809   5.375341   2.501456
    19  H    2.195270   3.406689   5.698940   4.634074   4.794771
                   16         17         18         19
    16  H    0.000000
    17  H    2.462443   0.000000
    18  H    6.001595   5.623314   0.000000
    19  H    7.262839   6.019633   2.460113   0.000000
 Stoichiometry    C12H5N2(1-)
 Framework group  C1[X(C12H5N2)]
 Deg. of freedom    51
 Full point group                 C1      NOp   1
 Largest Abelian subgroup         C1      NOp   1
 Largest concise Abelian subgroup C1      NOp   1
                         Standard orientation:                         
 ---------------------------------------------------------------------
 Center     Atomic      Atomic             Coordinates (Angstroms)
 Number     Number       Type             X           Y           Z
 ---------------------------------------------------------------------
      1          7           0       -4.892816   -0.276612    0.000221
      2          6           0       -3.697952   -0.254791    0.000036
      3          6           0       -1.543630    0.989060    0.000174
      4          6           0       -2.242395   -0.234599   -0.000140
      5          6           0       -1.506506   -1.463095   -0.000797
      6          6           0       -0.114232   -1.446363    0.000043
      7          6           0        0.631877   -0.216389    0.000113
      8          6           0       -0.117401    1.025850    0.000081
      9          6           0        0.608954    2.262236   -0.000004
     10          6           0        2.008724    2.258453   -0.000224
     11          6           0        2.822878    1.073432    0.000119
     12          6           0        2.081126   -0.135147    0.000158
     13          7           0        3.531752   -2.360053   -0.000037
     14          6           0        2.852846   -1.375565    0.000138
     15          1           0       -2.107805    1.930500    0.000247
     16          1           0       -2.039693   -2.421376    0.000130
     17          1           0        0.422684   -2.403379    0.000948
     18          1           0        0.043358    3.207127   -0.000095
     19          1           0        2.503175    3.245297   -0.000713
 ---------------------------------------------------------------------
 Rotational constants (GHZ):      1.4361061      0.4558513      0.3460177
 Standard basis: STO-3G (5D, 7F)
 There are    75 symmetry adapted cartesian basis functions of A   symmetry.
 There are    75 symmetry adapted basis functions of A   symmetry.
    75 basis functions,   225 primitive gaussians,    75 cartesian basis functions
    46 alpha electrons       46 beta electrons
       nuclear repulsion energy       694.2051860142 Hartrees.
 NAtoms=   19 NActive=   19 NUniq=   19 SFac= 1.00D+00 NAtFMM=   60 NAOKFM=F Big=F
 Integral buffers will be    131072 words long.
 Raffenetti 2 integral format.
 Two-electron integral symmetry is turned on.
 One-electron integrals computed using PRISM.
 NBasis=    75 RedAO= T EigKep=  1.73D-01  NBF=    75
 NBsUse=    75 1.00D-06 EigRej= -1.00D+00 NBFU=    75
 Initial guess from the checkpoint file:  "/tmp/bnp.472625.sequoia/Gau-5447.chk"
 B after Tr=     0.000000    0.000000    0.000000
         Rot=    0.999999    0.000001    0.000000   -0.001107 Ang=   0.13 deg.
 ExpMin= 1.69D-01 ExpMax= 9.91D+01 ExpMxC= 9.91D+01 IAcc=1 IRadAn=         1 AccDes= 0.00D+00
 Harris functional with IExCor=  402 and IRadAn=       1 diagonalized for initial guess.
 HarFok:  IExCor=  402 AccDes= 0.00D+00 IRadAn=         1 IDoV= 1 UseB2=F ITyADJ=14
 ICtDFT=  3500011 ScaDFX=  1.000000  1.000000  1.000000  1.000000
 FoFCou: FMM=F IPFlag=           0 FMFlag=      100000 FMFlg1=           0
         NFxFlg=           0 DoJE=T BraDBF=F KetDBF=T FulRan=T
         wScrn=  0.000000 ICntrl=     500 IOpCl=  0 I1Cent=   200000004 NGrid=           0
         NMat0=    1 NMatS0=      1 NMatT0=    0 NMatD0=    1 NMtDS0=    0 NMtDT0=    0
 Petite list used in FoFCou.
 Keep R1 ints in memory in canonical form, NReq=4993994.
 Requested convergence on RMS density matrix=1.00D-08 within 128 cycles.
 Requested convergence on MAX density matrix=1.00D-06.
 Requested convergence on             energy=1.00D-06.
 No special actions if energy rises.
 Integral accuracy reduced to 1.0D-05 until final iterations.
 Initial convergence to 1.0D-05 achieved.  Increase integral accuracy.
 SCF Done:  E(RB3LYP) =  -562.517160506     A.U. after   18 cycles
            NFock= 18  Conv=0.31D-08     -V/T= 2.0139
 Calling FoFJK, ICntrl=      2127 FMM=F ISym2X=0 I1Cent= 0 IOpClX= 0 NMat=1 NMatS=1 NMatT=0.
 ***** Axes restored to original set *****
 -------------------------------------------------------------------
 Center     Atomic                   Forces (Hartrees/Bohr)
 Number     Number              X              Y              Z
 -------------------------------------------------------------------
      1        7          -0.011542305   -0.000531993    0.000003155
      2        6           0.008674829    0.000238781    0.000003475
      3        6          -0.001918580    0.004341038    0.000019834
      4        6          -0.000849644   -0.007560728    0.000057048
      5        6           0.012067894    0.007303766   -0.000189254
      6        6          -0.011754506    0.001289821    0.000031607
      7        6           0.001867614    0.008962413    0.000024071
      8        6          -0.007332667    0.000522311   -0.000001012
      9        6           0.017457419   -0.012194745   -0.000002635
     10        6          -0.030293310   -0.002324986    0.000018197
     11        6           0.038200570    0.010622797   -0.000021332
     12        6          -0.014061971   -0.017167238   -0.000002480
     13        7           0.005310770    0.009089873   -0.000002069
     14        6          -0.003894203    0.000541785   -0.000011439
     15        1           0.000008842   -0.001345868   -0.000012905
     16        1          -0.002241444   -0.000306304    0.000053759
     17        1           0.003046101   -0.000140123    0.000036417
     18        1          -0.002894635    0.001127460   -0.000004133
     19        1           0.000149227   -0.002468062   -0.000000306
 -------------------------------------------------------------------
 Cartesian Forces:  Max     0.038200570 RMS     0.008751305

 GradGradGradGradGradGradGradGradGradGradGradGradGradGradGradGradGradGrad
 Berny optimization.
 Using GEDIIS/GDIIS optimizer.
 FormGI is forming the generalized inverse of G from B-inverse, IUseBI=4.
 Internal  Forces:  Max     0.021807570 RMS     0.004718930
 Search for a local minimum.
 Step number   2 out of a maximum of  102
 All quantities printed in internal units (Hartrees-Bohrs-Radians)
 Mixed Optimization -- RFO/linear search
 Update second derivatives using D2CorX and points    1    2
 DE= -2.99D-02 DEPred=-3.10D-02 R= 9.64D-01
 TightC=F SS=  1.41D+00  RLast= 3.00D-01 DXNew= 5.0454D-01 8.9994D-01
 Trust test= 9.64D-01 RLast= 3.00D-01 DXMaxT set to 5.05D-01
 ITU=  1  0
 Use linear search instead of GDIIS.
     Eigenvalues ---    0.01644   0.01644   0.01888   0.01894   0.01931
     Eigenvalues ---    0.01962   0.02019   0.02021   0.02027   0.02039
     Eigenvalues ---    0.02073   0.02131   0.02136   0.02165   0.02171
     Eigenvalues ---    0.02189   0.04848   0.04943   0.15899   0.16000
     Eigenvalues ---    0.16000   0.16000   0.16147   0.21658   0.22423
     Eigenvalues ---    0.23173   0.23533   0.24579   0.24884   0.25000
     Eigenvalues ---    0.25014   0.34765   0.34778   0.34857   0.34985
     Eigenvalues ---    0.35311   0.38804   0.40396   0.40563   0.40692
     Eigenvalues ---    0.40978   0.43040   0.43841   0.44093   0.45007
     Eigenvalues ---    0.45388   0.46255   0.46642   0.49401   1.26965
     Eigenvalues ---    1.34440
 RFO step:  Lambda=-3.77711180D-03 EMin= 1.64365445D-02
 Quartic linear search produced a step of  0.35351.
 Iteration  1 RMS(Cart)=  0.03213172 RMS(Int)=  0.00080095
 Iteration  2 RMS(Cart)=  0.00136243 RMS(Int)=  0.00026835
 Iteration  3 RMS(Cart)=  0.00000041 RMS(Int)=  0.00026835
 Variable       Old X    -DE/DX   Delta X   Delta X   Delta X     New X
                                 (Linear)    (Quad)   (Total)
    R1        2.25834   0.01155   0.02266  -0.01091   0.01175   2.27009
    R2        2.75087   0.00288   0.01473  -0.00599   0.00874   2.75960
    R3        2.66285  -0.00156   0.00622  -0.01091  -0.00467   2.65818
    R4        2.69608   0.00106   0.01165  -0.00914   0.00245   2.69853
    R5        2.07406   0.00119   0.00482  -0.00055   0.00427   2.07833
    R6        2.70616   0.00786   0.02590  -0.00425   0.02173   2.72789
    R7        2.63121  -0.00533  -0.00189  -0.01328  -0.01511   2.61610
    R8        2.07232   0.00094   0.00466  -0.00134   0.00332   2.07565
    R9        2.71852   0.00328   0.01588  -0.00674   0.00912   2.72764
   R10        2.07368   0.00121   0.00462  -0.00024   0.00439   2.07806
   R11        2.74145   0.00233   0.02158  -0.01655   0.00451   2.74597
   R12        2.74298   0.00313   0.02296  -0.01373   0.00936   2.75234
   R13        2.70979   0.00709   0.01805   0.00108   0.01859   2.72839
   R14        2.64519  -0.00729   0.00298  -0.02471  -0.02181   2.62338
   R15        2.08103   0.00035   0.00814  -0.00731   0.00083   2.08187
   R16        2.71695   0.02181   0.03333   0.02717   0.06090   2.77786
   R17        2.08585   0.00222   0.01150  -0.00378   0.00772   2.09358
   R18        2.67972   0.01004   0.01553   0.01399   0.03004   2.70976
   R19        2.76067   0.00913   0.01974   0.00919   0.02893   2.78961
   R20        2.25989   0.01053   0.02304  -0.01238   0.01066   2.27055
    A1        2.11544   0.00041   0.00100   0.00080   0.00162   2.11706
    A2        2.08285   0.00045   0.00113   0.00319   0.00441   2.08726
    A3        2.08489  -0.00086  -0.00213  -0.00399  -0.00603   2.07886
    A4        2.10352  -0.00016  -0.00186   0.00101  -0.00083   2.10270
    A5        2.09662   0.00051   0.00334  -0.00104   0.00232   2.09894
    A6        2.08304  -0.00035  -0.00148   0.00003  -0.00149   2.08155
    A7        2.09847  -0.00023   0.00122  -0.00257  -0.00135   2.09712
    A8        2.09415  -0.00201  -0.00406  -0.01243  -0.01650   2.07765
    A9        2.09056   0.00225   0.00284   0.01501   0.01785   2.10841
   A10        2.12808   0.00073   0.00236   0.00089   0.00315   2.13123
   A11        2.07005   0.00254   0.00634   0.01507   0.02147   2.09152
   A12        2.08506  -0.00327  -0.00871  -0.01596  -0.02462   2.06044
   A13        2.05358  -0.00018  -0.00298   0.00158  -0.00140   2.05219
   A14        2.17206   0.00092   0.00630  -0.00007   0.00660   2.17866
   A15        2.05754  -0.00074  -0.00332  -0.00151  -0.00521   2.05234
   A16        2.08775  -0.00037  -0.00013  -0.00071  -0.00053   2.08722
   A17        2.12775   0.00290   0.00625   0.01214   0.01912   2.14687
   A18        2.06768  -0.00253  -0.00612  -0.01142  -0.01859   2.04910
   A19        2.09926   0.00055  -0.00489   0.00316  -0.00252   2.09674
   A20        2.07105  -0.00349  -0.01164  -0.01231  -0.02356   2.04749
   A21        2.11288   0.00294   0.01653   0.00916   0.02608   2.13895
   A22        2.17547   0.01096   0.03028   0.03166   0.06215   2.23762
   A23        2.03258  -0.00662  -0.02630  -0.01278  -0.03919   1.99339
   A24        2.07514  -0.00433  -0.00397  -0.01888  -0.02296   2.05218
   A25        1.98916  -0.02001  -0.03947  -0.06079  -0.09879   1.89037
   A26        2.17726   0.01177   0.02352   0.03891   0.06295   2.24021
   A27        2.07134  -0.01076  -0.02081  -0.03566  -0.05673   2.01461
   A28        2.03459  -0.00100  -0.00271  -0.00324  -0.00622   2.02837
   A29        3.13720   0.00021   0.00470   0.00471   0.00941   3.14661
   A30        3.18876  -0.00044   0.02473  -0.04511  -0.02038   3.16838
   A31        3.14163   0.00000   0.00011  -0.00007   0.00004   3.14167
   A32        3.14145   0.00000  -0.00011   0.00018   0.00007   3.14152
    D1        3.14153   0.00001   0.00004   0.00023   0.00026  -3.14139
    D2       -0.00019   0.00001   0.00008   0.00041   0.00049   0.00030
    D3       -0.00032   0.00001   0.00006   0.00046   0.00051   0.00019
    D4        3.14114   0.00002   0.00010   0.00064   0.00074  -3.14130
    D5       -0.00036   0.00001   0.00004   0.00036   0.00040   0.00004
    D6        3.14126   0.00000   0.00002   0.00018   0.00020   3.14146
    D7        3.14149   0.00000   0.00002   0.00013   0.00015  -3.14154
    D8       -0.00007   0.00000   0.00000  -0.00005  -0.00005  -0.00012
    D9       -3.14075  -0.00003  -0.00016  -0.00113  -0.00128   3.14115
   D10       -0.00137   0.00003   0.00017   0.00136   0.00151   0.00014
   D11        0.00097  -0.00003  -0.00020  -0.00131  -0.00151  -0.00054
   D12        3.14035   0.00003   0.00013   0.00118   0.00128  -3.14155
   D13       -0.00120   0.00003   0.00020   0.00144   0.00164   0.00044
   D14        3.14010   0.00004   0.00023   0.00180   0.00204  -3.14105
   D15       -3.14059  -0.00002  -0.00012  -0.00101  -0.00115   3.14144
   D16        0.00071  -0.00001  -0.00009  -0.00065  -0.00075  -0.00005
   D17        0.00063  -0.00001  -0.00007  -0.00065  -0.00073  -0.00009
   D18       -3.14092  -0.00002  -0.00015  -0.00087  -0.00103   3.14124
   D19       -3.14067  -0.00002  -0.00010  -0.00102  -0.00112   3.14139
   D20        0.00097  -0.00003  -0.00018  -0.00124  -0.00142  -0.00045
   D21        0.00015  -0.00001  -0.00005  -0.00026  -0.00030  -0.00015
   D22       -3.14147   0.00000  -0.00003  -0.00008  -0.00011  -3.14158
   D23       -3.14148   0.00000   0.00003  -0.00005  -0.00002  -3.14151
   D24        0.00008   0.00000   0.00005   0.00013   0.00017   0.00025
   D25        3.14150   0.00000   0.00004   0.00001   0.00004   3.14154
   D26        0.00000  -0.00001  -0.00008  -0.00029  -0.00037  -0.00037
   D27       -0.00005   0.00000  -0.00004  -0.00021  -0.00026  -0.00030
   D28       -3.14155  -0.00001  -0.00016  -0.00052  -0.00067   3.14097
   D29       -3.14149   0.00000   0.00003   0.00015   0.00018  -3.14130
   D30       -0.00010   0.00000   0.00002   0.00023   0.00024   0.00014
   D31        0.00014   0.00000   0.00001  -0.00003  -0.00002   0.00012
   D32        3.14152   0.00000   0.00000   0.00005   0.00004   3.14157
   D33       -0.00042   0.00000  -0.00008  -0.00003  -0.00011  -0.00053
   D34        3.14115   0.00000  -0.00006   0.00013   0.00007   3.14123
   D35        3.14138   0.00000  -0.00007  -0.00010  -0.00017   3.14122
   D36       -0.00023   0.00000  -0.00004   0.00006   0.00002  -0.00021
   D37        0.00043   0.00000   0.00008  -0.00005   0.00003   0.00046
   D38       -3.14114   0.00000   0.00006  -0.00022  -0.00016  -3.14130
   D39       -0.00019   0.00000  -0.00001   0.00018   0.00016  -0.00003
   D40        3.14131   0.00001   0.00009   0.00047   0.00057  -3.14130
         Item               Value     Threshold  Converged?
 Maximum Force            0.021808     0.000450     NO 
 RMS     Force            0.004719     0.000300     NO 
 Maximum Displacement     0.190283     0.001800     NO 
 RMS     Displacement     0.032281     0.001200     NO 
 Predicted change in Energy=-3.514271D-03
 GradGradGradGradGradGradGradGradGradGradGradGradGradGradGradGradGradGrad

                          Input orientation:                          
 ---------------------------------------------------------------------
 Center     Atomic      Atomic             Coordinates (Angstroms)
 Number     Number       Type             X           Y           Z
 ---------------------------------------------------------------------
      1          7           0        1.131330   -0.195246   -0.073319
      2          6           0        2.331612   -0.146313   -0.073994
      3          6           0        4.547258   -1.280214   -0.075371
      4          6           0        3.790999   -0.094156   -0.074910
      5          6           0        4.473441    1.177881   -0.075482
      6          6           0        5.857023    1.224815   -0.075824
      7          6           0        6.665280    0.028928   -0.076170
      8          6           0        5.974931   -1.249714   -0.076026
      9          6           0        6.787103   -2.443420   -0.076356
     10          6           0        8.171792   -2.344261   -0.076645
     11          6           0        8.996134   -1.127177   -0.077286
     12          6           0        8.121624    0.009233   -0.076956
     13          7           0        9.332676    2.397170   -0.078605
     14          6           0        8.773450    1.333723   -0.077905
     15          1           0        4.032863   -2.252309   -0.075220
     16          1           0        3.879310    2.101709   -0.075080
     17          1           0        6.371457    2.196728   -0.075738
     18          1           0        6.262159   -3.411987   -0.076220
     19          1           0        8.697169   -3.319638   -0.076514
 ---------------------------------------------------------------------
                    Distance matrix (angstroms):
                    1          2          3          4          5
     1  N    0.000000
     2  C    1.201279   0.000000
     3  C    3.584093   2.488939   0.000000
     4  C    2.661589   1.460319   1.406650   0.000000
     5  C    3.613195   2.518119   2.459203   1.443539   0.000000
     6  C    4.934445   3.782660   2.826775   2.451150   1.384378
     7  C    5.538489   4.337210   2.489954   2.876916   2.474723
     8  C    4.957054   3.806740   1.428000   2.470805   2.854416
     9  C    6.086219   5.012794   2.523878   3.807320   4.297308
    10  C    7.361139   6.240086   3.777492   4.924868   5.107180
    11  C    7.919826   6.736316   4.451508   5.306653   5.076224
    12  C    6.993285   5.792102   3.799839   4.331860   3.830794
    13  N    8.601320   7.448773   6.035179   6.075928   5.009874
    14  C    7.793572   6.609675   4.969243   5.183017   4.302834
    15  H    3.556741   2.707300   1.099805   2.171664   3.458368
    16  H    3.581535   2.729280   3.447254   2.197639   1.098385
    17  H    5.760249   4.670138   3.926427   3.450639   2.154186
    18  H    6.055810   5.110169   2.735936   4.136985   4.926094
    19  H    8.185582   7.112687   4.623961   5.871478   6.169892
                    6          7          8          9         10
     6  C    0.000000
     7  C    1.443408   0.000000
     8  C    2.477336   1.453102   0.000000
     9  C    3.784309   2.475347   1.443800   0.000000
    10  C    4.253993   2.810979   2.454430   1.388234   0.000000
    11  C    3.922484   2.601818   3.023687   2.571442   1.469978
    12  C    2.570226   1.456478   2.488622   2.792213   2.354028
    13  N    3.668050   3.567012   4.957239   5.469118   4.881477
    14  C    2.918461   2.479289   3.808656   4.267597   3.726870
    15  H    3.926570   3.483341   2.185595   2.760863   4.139950
    16  H    2.163398   3.472471   3.952678   5.395689   6.179972
    17  H    1.099663   2.187622   3.469177   4.658727   4.884852
    18  H    4.654468   3.464448   2.181267   1.101676   2.187861
    19  H    5.358963   3.916819   3.419820   2.101454   1.107873
                   11         12         13         14         15
    11  C    0.000000
    12  C    1.433943   0.000000
    13  N    3.540379   2.677479   0.000000
    14  C    2.470954   1.476195   1.201521   0.000000
    15  H    5.089203   4.672531   7.050226   5.944140   0.000000
    16  H    6.050421   4.730295   5.461365   4.954031   4.356725
    17  H    4.235241   2.801468   2.967996   2.552323   5.026226
    18  H    3.563001   3.893887   6.570722   5.369204   2.512890
    19  H    2.212751   3.378259   5.752023   4.653986   4.784866
                   16         17         18         19
    16  H    0.000000
    17  H    2.493958   0.000000
    18  H    6.006564   5.609780   0.000000
    19  H    7.252777   5.986587   2.436761   0.000000
 Stoichiometry    C12H5N2(1-)
 Framework group  C1[X(C12H5N2)]
 Deg. of freedom    51
 Full point group                 C1      NOp   1
 Largest Abelian subgroup         C1      NOp   1
 Largest concise Abelian subgroup C1      NOp   1
                         Standard orientation:                         
 ---------------------------------------------------------------------
 Center     Atomic      Atomic             Coordinates (Angstroms)
 Number     Number       Type             X           Y           Z
 ---------------------------------------------------------------------
      1          7           0       -4.899614   -0.258481   -0.000079
      2          6           0       -3.698393   -0.246719   -0.000058
      3          6           0       -1.542855    0.997659    0.000294
      4          6           0       -2.238235   -0.225088    0.000064
      5          6           0       -1.492406   -1.461027    0.000077
      6          6           0       -0.108220   -1.438008   -0.000333
      7          6           0        0.638595   -0.202819   -0.000245
      8          6           0       -0.115464    1.039317    0.000174
      9          6           0        0.635371    2.272526    0.000244
     10          6           0        2.023301    2.243442   -0.000228
     11          6           0        2.908072    1.069554   -0.000213
     12          6           0        2.092085   -0.109581   -0.000241
     13          7           0        3.422218   -2.433293    0.000398
     14          6           0        2.809986   -1.399453    0.000158
     15          1           0       -2.105699    1.942528    0.000565
     16          1           0       -2.039111   -2.413688   -0.000143
     17          1           0        0.454654   -2.382694   -0.000843
     18          1           0        0.062169    3.213339    0.000536
     19          1           0        2.498736    3.244114   -0.000497
 ---------------------------------------------------------------------
 Rotational constants (GHZ):      1.4155991      0.4582409      0.3461797
 Standard basis: STO-3G (5D, 7F)
 There are    75 symmetry adapted cartesian basis functions of A   symmetry.
 There are    75 symmetry adapted basis functions of A   symmetry.
    75 basis functions,   225 primitive gaussians,    75 cartesian basis functions
    46 alpha electrons       46 beta electrons
       nuclear repulsion energy       692.8913566248 Hartrees.
 NAtoms=   19 NActive=   19 NUniq=   19 SFac= 1.00D+00 NAtFMM=   60 NAOKFM=F Big=F
 Integral buffers will be    131072 words long.
 Raffenetti 2 integral format.
 Two-electron integral symmetry is turned on.
 One-electron integrals computed using PRISM.
 NBasis=    75 RedAO= T EigKep=  1.76D-01  NBF=    75
 NBsUse=    75 1.00D-06 EigRej= -1.00D+00 NBFU=    75
 Initial guess from the checkpoint file:  "/tmp/bnp.472625.sequoia/Gau-5447.chk"
 B after Tr=     0.000000    0.000000    0.000000
         Rot=    0.999992    0.000000    0.000000    0.004107 Ang=  -0.47 deg.
 ExpMin= 1.69D-01 ExpMax= 9.91D+01 ExpMxC= 9.91D+01 IAcc=1 IRadAn=         1 AccDes= 0.00D+00
 Harris functional with IExCor=  402 and IRadAn=       1 diagonalized for initial guess.
 HarFok:  IExCor=  402 AccDes= 0.00D+00 IRadAn=         1 IDoV= 1 UseB2=F ITyADJ=14
 ICtDFT=  3500011 ScaDFX=  1.000000  1.000000  1.000000  1.000000
 FoFCou: FMM=F IPFlag=           0 FMFlag=      100000 FMFlg1=           0
         NFxFlg=           0 DoJE=T BraDBF=F KetDBF=T FulRan=T
         wScrn=  0.000000 ICntrl=     500 IOpCl=  0 I1Cent=   200000004 NGrid=           0
         NMat0=    1 NMatS0=      1 NMatT0=    0 NMatD0=    1 NMtDS0=    0 NMtDT0=    0
 Petite list used in FoFCou.
 Keep R1 ints in memory in canonical form, NReq=4993994.
 Requested convergence on RMS density matrix=1.00D-08 within 128 cycles.
 Requested convergence on MAX density matrix=1.00D-06.
 Requested convergence on             energy=1.00D-06.
 No special actions if energy rises.
 Integral accuracy reduced to 1.0D-05 until final iterations.
 Initial convergence to 1.0D-05 achieved.  Increase integral accuracy.
 SCF Done:  E(RB3LYP) =  -562.521002363     A.U. after   13 cycles
            NFock= 13  Conv=0.77D-08     -V/T= 2.0140
 Calling FoFJK, ICntrl=      2127 FMM=F ISym2X=0 I1Cent= 0 IOpClX= 0 NMat=1 NMatS=1 NMatT=0.
 ***** Axes restored to original set *****
 -------------------------------------------------------------------
 Center     Atomic                   Forces (Hartrees/Bohr)
 Number     Number              X              Y              Z
 -------------------------------------------------------------------
      1        7           0.002803336    0.000357567    0.000003244
      2        6          -0.001661424   -0.000289060   -0.000014118
      3        6           0.000628729   -0.000448867    0.000003484
      4        6          -0.000653456    0.000000462   -0.000026912
      5        6          -0.000748907   -0.000047634    0.000055397
      6        6           0.001291466    0.001187116    0.000000229
      7        6           0.000691893   -0.001762780   -0.000009661
      8        6          -0.001443105    0.001680614    0.000002869
      9        6           0.000743603    0.001226027   -0.000001229
     10        6          -0.005606073   -0.010434561    0.000012453
     11        6           0.003954374    0.003208284   -0.000008913
     12        6          -0.002482842    0.003381767   -0.000009232
     13        7          -0.001459158   -0.003064157   -0.000001253
     14        6           0.001691919    0.004734982    0.000011678
     15        1           0.000130904    0.000362490    0.000007804
     16        1           0.000097067   -0.000489367   -0.000007984
     17        1          -0.000234707   -0.000433471   -0.000015413
     18        1           0.001151032    0.000042668   -0.000003154
     19        1           0.001105349    0.000787919    0.000000709
 -------------------------------------------------------------------
 Cartesian Forces:  Max     0.010434561 RMS     0.002096356

 GradGradGradGradGradGradGradGradGradGradGradGradGradGradGradGradGradGrad
 Berny optimization.
 Using GEDIIS/GDIIS optimizer.
 FormGI is forming the generalized inverse of G from B-inverse, IUseBI=4.
 Internal  Forces:  Max     0.007301509 RMS     0.001162718
 Search for a local minimum.
 Step number   3 out of a maximum of  102
 All quantities printed in internal units (Hartrees-Bohrs-Radians)
 Mixed Optimization -- RFO/linear search
 Update second derivatives using D2CorX and points    1    2    3
 DE= -3.84D-03 DEPred=-3.51D-03 R= 1.09D+00
 TightC=F SS=  1.41D+00  RLast= 1.87D-01 DXNew= 8.4853D-01 5.5981D-01
 Trust test= 1.09D+00 RLast= 1.87D-01 DXMaxT set to 5.60D-01
 ITU=  1  1  0
 Use linear search instead of GDIIS.
     Eigenvalues ---    0.01644   0.01646   0.01888   0.01895   0.01932
     Eigenvalues ---    0.01967   0.02018   0.02023   0.02027   0.02037
     Eigenvalues ---    0.02076   0.02131   0.02135   0.02165   0.02170
     Eigenvalues ---    0.02188   0.04848   0.04970   0.15704   0.16000
     Eigenvalues ---    0.16000   0.16001   0.16297   0.21707   0.22445
     Eigenvalues ---    0.22934   0.23531   0.24573   0.24868   0.25005
     Eigenvalues ---    0.25273   0.34768   0.34776   0.34859   0.34995
     Eigenvalues ---    0.35245   0.37544   0.39303   0.40516   0.40687
     Eigenvalues ---    0.41011   0.41989   0.43256   0.43947   0.45023
     Eigenvalues ---    0.45366   0.46383   0.46558   0.49380   1.26959
     Eigenvalues ---    1.37878
 RFO step:  Lambda=-3.14004992D-04 EMin= 1.64365460D-02
 Quartic linear search produced a step of -0.00552.
 Iteration  1 RMS(Cart)=  0.00857761 RMS(Int)=  0.00012391
 Iteration  2 RMS(Cart)=  0.00012276 RMS(Int)=  0.00000257
 Iteration  3 RMS(Cart)=  0.00000000 RMS(Int)=  0.00000257
 Variable       Old X    -DE/DX   Delta X   Delta X   Delta X     New X
                                 (Linear)    (Quad)   (Total)
    R1        2.27009  -0.00282  -0.00006  -0.00112  -0.00119   2.26890
    R2        2.75960  -0.00114  -0.00005  -0.00203  -0.00208   2.75753
    R3        2.65818  -0.00024   0.00003  -0.00047  -0.00044   2.65774
    R4        2.69853  -0.00089  -0.00001  -0.00165  -0.00166   2.69686
    R5        2.07833  -0.00038  -0.00002  -0.00079  -0.00082   2.07751
    R6        2.72789  -0.00040  -0.00012   0.00075   0.00063   2.72852
    R7        2.61610   0.00031   0.00008   0.00029   0.00038   2.61647
    R8        2.07565  -0.00046  -0.00002  -0.00105  -0.00107   2.07457
    R9        2.72764  -0.00002  -0.00005   0.00081   0.00076   2.72840
   R10        2.07806  -0.00049  -0.00002  -0.00111  -0.00113   2.07693
   R11        2.74597   0.00026  -0.00002   0.00082   0.00080   2.74676
   R12        2.75234  -0.00139  -0.00005  -0.00236  -0.00242   2.74992
   R13        2.72839   0.00162  -0.00010   0.00449   0.00439   2.73278
   R14        2.62338  -0.00163   0.00012  -0.00373  -0.00360   2.61978
   R15        2.08187  -0.00059   0.00000  -0.00134  -0.00134   2.08052
   R16        2.77786   0.00730  -0.00034   0.01848   0.01814   2.79600
   R17        2.09358  -0.00017  -0.00004   0.00016   0.00011   2.09369
   R18        2.70976   0.00333  -0.00017   0.00869   0.00852   2.71828
   R19        2.78961   0.00160  -0.00016   0.00538   0.00522   2.79483
   R20        2.27055  -0.00339  -0.00006  -0.00159  -0.00165   2.26889
    A1        2.11706   0.00000  -0.00001  -0.00051  -0.00052   2.11654
    A2        2.08726  -0.00006  -0.00002   0.00012   0.00009   2.08736
    A3        2.07886   0.00006   0.00003   0.00040   0.00043   2.07929
    A4        2.10270   0.00019   0.00000   0.00070   0.00070   2.10340
    A5        2.09894  -0.00046  -0.00001  -0.00158  -0.00159   2.09735
    A6        2.08155   0.00027   0.00001   0.00088   0.00089   2.08244
    A7        2.09712   0.00004   0.00001   0.00041   0.00041   2.09754
    A8        2.07765  -0.00021   0.00009  -0.00199  -0.00190   2.07576
    A9        2.10841   0.00017  -0.00010   0.00158   0.00148   2.10989
   A10        2.13123  -0.00053  -0.00002  -0.00211  -0.00212   2.12911
   A11        2.09152   0.00026  -0.00012   0.00199   0.00187   2.09339
   A12        2.06044   0.00027   0.00014   0.00012   0.00025   2.06069
   A13        2.05219   0.00028   0.00001   0.00142   0.00142   2.05361
   A14        2.17866  -0.00138  -0.00004  -0.00408  -0.00412   2.17455
   A15        2.05234   0.00110   0.00003   0.00266   0.00269   2.05503
   A16        2.08722  -0.00006   0.00000  -0.00008  -0.00008   2.08714
   A17        2.14687  -0.00081  -0.00011  -0.00128  -0.00139   2.14548
   A18        2.04910   0.00087   0.00010   0.00137   0.00148   2.05057
   A19        2.09674   0.00082   0.00001   0.00325   0.00328   2.10002
   A20        2.04749   0.00062   0.00013   0.00345   0.00358   2.05107
   A21        2.13895  -0.00144  -0.00014  -0.00670  -0.00685   2.13210
   A22        2.23762  -0.00246  -0.00034  -0.00665  -0.00699   2.23063
   A23        1.99339   0.00264   0.00022   0.01132   0.01153   2.00492
   A24        2.05218  -0.00018   0.00013  -0.00466  -0.00454   2.04764
   A25        1.89037   0.00114   0.00055   0.00257   0.00311   1.89348
   A26        2.24021  -0.00148  -0.00035  -0.00320  -0.00356   2.23665
   A27        2.01461   0.00016   0.00031  -0.00173  -0.00141   2.01320
   A28        2.02837   0.00132   0.00003   0.00493   0.00497   2.03334
   A29        3.14661  -0.00056  -0.00005  -0.03207  -0.03213   3.11449
   A30        3.16838   0.00031   0.00011   0.00735   0.00746   3.17584
   A31        3.14167  -0.00001   0.00000  -0.00050  -0.00050   3.14117
   A32        3.14152   0.00001   0.00000   0.00013   0.00013   3.14165
    D1       -3.14139  -0.00001   0.00000  -0.00023  -0.00023   3.14156
    D2        0.00030  -0.00001   0.00000  -0.00043  -0.00043  -0.00013
    D3        0.00019   0.00000   0.00000  -0.00020  -0.00020  -0.00001
    D4       -3.14130  -0.00001   0.00000  -0.00040  -0.00040   3.14148
    D5        0.00004   0.00000   0.00000   0.00000   0.00000   0.00004
    D6        3.14146   0.00000   0.00000   0.00008   0.00008   3.14154
    D7       -3.14154   0.00000   0.00000  -0.00003  -0.00003  -3.14157
    D8       -0.00012   0.00000   0.00000   0.00005   0.00005  -0.00008
    D9        3.14115   0.00001   0.00001   0.00044   0.00044  -3.14159
   D10        0.00014  -0.00001  -0.00001  -0.00021  -0.00021  -0.00007
   D11       -0.00054   0.00002   0.00001   0.00064   0.00065   0.00011
   D12       -3.14155   0.00000  -0.00001   0.00000  -0.00001  -3.14156
   D13        0.00044  -0.00001  -0.00001  -0.00042  -0.00043   0.00001
   D14       -3.14105  -0.00002  -0.00001  -0.00064  -0.00066   3.14148
   D15        3.14144   0.00001   0.00001   0.00023   0.00024  -3.14151
   D16       -0.00005   0.00000   0.00000   0.00001   0.00001  -0.00003
   D17       -0.00009   0.00000   0.00000  -0.00001   0.00000  -0.00010
   D18        3.14124   0.00000   0.00001   0.00012   0.00012   3.14136
   D19        3.14139   0.00001   0.00001   0.00021   0.00022  -3.14157
   D20       -0.00045   0.00001   0.00001   0.00034   0.00034  -0.00011
   D21       -0.00015   0.00001   0.00000   0.00022   0.00022   0.00007
[...]
 ! D14   D(4,5,6,17)          -180.0014         -DE/DX =    0.0                 !
 ! D15   D(16,5,6,7)          -179.9973         -DE/DX =    0.0                 !
 ! D16   D(16,5,6,17)            0.0002         -DE/DX =    0.0                 !
 ! D17   D(5,6,7,8)             -0.0027         -DE/DX =    0.0                 !
 ! D18   D(5,6,7,12)           179.9905         -DE/DX =    0.0                 !
 ! D19   D(17,6,7,8)           179.9997         -DE/DX =    0.0                 !
 ! D20   D(17,6,7,12)           -0.0071         -DE/DX =    0.0                 !
 ! D21   D(6,7,8,3)              0.0018         -DE/DX =    0.0                 !
 ! D22   D(6,7,8,9)           -179.9941         -DE/DX =    0.0                 !
 ! D23   D(12,7,8,3)          -179.9918         -DE/DX =    0.0                 !
 ! D24   D(12,7,8,9)             0.0123         -DE/DX =    0.0                 !
 ! D25   D(6,7,12,11)          179.9936         -DE/DX =    0.0                 !
 ! D26   D(6,7,12,14)           -0.0125         -DE/DX =    0.0                 !
 ! D27   D(8,7,12,11)           -0.0133         -DE/DX =    0.0                 !
 ! D28   D(8,7,12,14)          179.9806         -DE/DX =    0.0                 !
 ! D29   D(3,8,9,10)          -179.9905         -DE/DX =    0.0                 !
 ! D30   D(3,8,9,18)             0.0042         -DE/DX =    0.0                 !
 ! D31   D(7,8,9,10)             0.0053         -DE/DX =    0.0                 !
 ! D32   D(7,8,9,18)          -180.0001         -DE/DX =    0.0                 !
 ! D33   D(8,9,10,11)           -0.026          -DE/DX =    0.0                 !
 ! D34   D(8,9,10,19)          179.9825         -DE/DX =    0.0                 !
 ! D35   D(18,9,10,11)         179.9796         -DE/DX =    0.0                 !
 ! D36   D(18,9,10,19)          -0.0119         -DE/DX =    0.0                 !
 ! D37   D(9,10,11,12)           0.024          -DE/DX =    0.0                 !
 ! D38   D(19,10,11,12)       -179.9847         -DE/DX =    0.0                 !
 ! D39   D(10,11,12,7)          -0.0036         -DE/DX =    0.0                 !
 ! D40   D(10,11,12,14)       -179.9975         -DE/DX =    0.0                 !
 --------------------------------------------------------------------------------
 GradGradGradGradGradGradGradGradGradGradGradGradGradGradGradGradGradGrad

                          Input orientation:                          
 ---------------------------------------------------------------------
 Center     Atomic      Atomic             Coordinates (Angstroms)
 Number     Number       Type             X           Y           Z
 ---------------------------------------------------------------------
      1          7           0        1.134749   -0.181289   -0.073064
      2          6           0        2.334269   -0.144073   -0.074418
      3          6           0        4.548578   -1.281807   -0.075356
      4          6           0        3.792028   -0.095612   -0.075015
      5          6           0        4.473818    1.176054   -0.075256
      6          6           0        5.857851    1.224671   -0.075848
      7          6           0        6.665014    0.027556   -0.076266
      8          6           0        5.974308   -1.249831   -0.075984
      9          6           0        6.786268   -2.446812   -0.076272
     10          6           0        8.167911   -2.356129   -0.076685
     11          6           0        8.997578   -1.125631   -0.077425
     12          6           0        8.119648    0.013445   -0.077091
     13          7           0        9.325461    2.404002   -0.078327
     14          6           0        8.768551    1.340988   -0.077796
     15          1           0        4.034462   -2.253440   -0.075143
     16          1           0        3.878036    2.098179   -0.074990
     17          1           0        6.372014    2.195886   -0.076053
     18          1           0        6.263266   -3.415751   -0.076057
     19          1           0        8.703800   -3.324655   -0.076575
 ---------------------------------------------------------------------
                    Distance matrix (angstroms):
                    1          2          3          4          5
     1  N    0.000000
     2  C    1.200099   0.000000
     3  C    3.586834   2.489499   0.000000
     4  C    2.658661   1.458564   1.406921   0.000000
     5  C    3.604409   2.514041   2.458998   1.442904   0.000000
     6  C    4.927923   3.780091   2.827831   2.451688   1.384887
     7  C    5.534208   4.334145   2.488721   2.875626   2.473942
     8  C    4.956120   3.804285   1.426088   2.468718   2.852436
     9  C    6.088701   5.012275   2.522795   3.807048   4.297975
    10  C    7.361746   6.238956   3.775412   4.925271   5.111031
    11  C    7.919336   6.735217   4.451740   5.306477   5.075644
    12  C    6.987614   5.787523   3.798713   4.328994   3.826714
    13  N    8.589035   7.441066   6.033557   6.071817   5.004629
    14  C    7.784105   6.603438   4.968624   5.179731   4.297900
    15  H    3.564008   2.709259   1.099266   2.171404   3.457522
    16  H    3.566736   2.722298   3.445857   2.195476   1.097848
    17  H    5.751515   4.666776   3.926738   3.450695   2.154810
    18  H    6.063286   5.112816   2.737493   4.138881   4.928164
    19  H    8.195809   7.119482   4.630236   5.878114   6.176498
                    6          7          8          9         10
     6  C    0.000000
     7  C    1.443814   0.000000
     8  C    2.477242   1.452169   0.000000
     9  C    3.787050   2.477337   1.446389   0.000000
    10  C    4.261281   2.817917   2.456784   1.384615   0.000000
    11  C    3.921965   2.602056   3.025821   2.575929   1.484074
    12  C    2.565696   1.454702   2.489649   2.798350   2.370066
    13  N    3.662670   3.567279   4.957896   5.475208   4.898855
    14  C    2.913024   2.479914   3.810531   4.275146   3.745590
    15  H    3.927086   3.481774   2.184086   2.758592   4.134724
    16  H    2.163950   3.471991   3.950130   5.395809   6.184164
    17  H    1.098919   2.188037   3.468594   4.661143   4.893475
    18  H    4.658099   3.466665   2.185110   1.101079   2.179558
    19  H    5.366171   3.923514   3.428559   2.108918   1.106896
                   11         12         13         14         15
    11  C    0.000000
    12  C    1.438142   0.000000
    13  N    3.544830   2.677453   0.000000
    14  C    2.477228   1.477649   1.200062   0.000000
    15  H    5.089644   4.671992   7.048861   5.944032   0.000000
    16  H    6.050013   4.726245   5.456003   4.948785   4.354429
    17  H    4.233918   2.795939   2.960771   2.544453   5.025998
    18  H    3.566668   3.899428   6.576213   5.376153   2.513669
    19  H    2.218561   3.388826   5.762289   4.666092   4.790638
                   16         17         18         19
    16  H    0.000000
    17  H    2.495891   0.000000
    18  H    6.007723   5.612691   0.000000
    19  H    7.259140   5.992796   2.442234   0.000000
 Stoichiometry    C12H5N2(1-)
 Framework group  C1[X(C12H5N2)]
 Deg. of freedom    51
 Full point group                 C1      NOp   1
 Largest Abelian subgroup         C1      NOp   1
 Largest concise Abelian subgroup C1      NOp   1
                         Standard orientation:                         
 ---------------------------------------------------------------------
 Center     Atomic      Atomic             Coordinates (Angstroms)
 Number     Number       Type             X           Y           Z
 ---------------------------------------------------------------------
      1          7           0       -4.895296   -0.266402   -0.000346
      2          6           0       -3.695404   -0.244155    0.000361
      3          6           0       -1.540170    1.001868    0.000249
      4          6           0       -2.237034   -0.220347    0.000172
      5          6           0       -1.493090   -1.456679   -0.000105
      6          6           0       -0.108348   -1.436680   -0.000260
      7          6           0        0.638527   -0.201052   -0.000132
      8          6           0       -0.114607    1.040554    0.000110
      9          6           0        0.637065    2.276285    0.000105
     10          6           0        2.021503    2.254153   -0.000233
     11          6           0        2.911105    1.066262   -0.000084
     12          6           0        2.090676   -0.114903   -0.000083
     13          7           0        3.413424   -2.442797    0.000220
     14          6           0        2.804542   -1.408673    0.000115
     15          1           0       -2.101784    1.946841    0.000427
     16          1           0       -2.042463   -2.407184   -0.000162
     17          1           0        0.453293   -2.381234   -0.000447
     18          1           0        0.066708    3.218128    0.000286
     19          1           0        2.508759    3.248035   -0.000513
 ---------------------------------------------------------------------
 Rotational constants (GHZ):      1.4090928      0.4591068      0.3462821

 **********************************************************************

            Population analysis using the SCF density.

 **********************************************************************

 Orbital symmetries:
       Occupied  (A) (A) (A) (A) (A) (A) (A) (A) (A) (A) (A) (A)
                 (A) (A) (A) (A) (A) (A) (A) (A) (A) (A) (A) (A)
                 (A) (A) (A) (A) (A) (A) (A) (A) (A) (A) (A) (A)
                 (A) (A) (A) (A) (A) (A) (A) (A) (A) (A)
       Virtual   (A) (A) (A) (A) (A) (A) (A) (A) (A) (A) (A) (A)
                 (A) (A) (A) (A) (A) (A) (A) (A) (A) (A) (A) (A)
                 (A) (A) (A) (A) (A)
 The electronic state is 1-A.
 Alpha  occ. eigenvalues --  -14.00009 -13.93162  -9.91221  -9.90522  -9.89130
 Alpha  occ. eigenvalues --   -9.88608  -9.87377  -9.87291  -9.87155  -9.84686
 Alpha  occ. eigenvalues --   -9.84088  -9.82675  -9.81779  -9.68116  -0.73552
 Alpha  occ. eigenvalues --   -0.68455  -0.67505  -0.61916  -0.58937  -0.54022
 Alpha  occ. eigenvalues --   -0.52650  -0.44248  -0.42938  -0.41101  -0.35804
 Alpha  occ. eigenvalues --   -0.31866  -0.30401  -0.27616  -0.26230  -0.24045
 Alpha  occ. eigenvalues --   -0.21416  -0.21271  -0.19309  -0.17862  -0.17048
 Alpha  occ. eigenvalues --   -0.15916  -0.14558  -0.13159  -0.12708  -0.10843
 Alpha  occ. eigenvalues --   -0.10151  -0.07888  -0.07425  -0.02752   0.01101
 Alpha  occ. eigenvalues --    0.10458
 Alpha virt. eigenvalues --    0.17120   0.19593   0.24803   0.25936   0.29258
 Alpha virt. eigenvalues --    0.31004   0.34066   0.37645   0.42197   0.45842
 Alpha virt. eigenvalues --    0.48107   0.50543   0.52668   0.54213   0.56181
 Alpha virt. eigenvalues --    0.57085   0.59006   0.63610   0.67021   0.67388
 Alpha virt. eigenvalues --    0.70446   0.74501   0.78849   0.81663   0.83668
 Alpha virt. eigenvalues --    0.91032   0.93199   1.05895   1.10532
          Condensed to atoms (all electrons):
               1          2          3          4          5          6
     1  N    6.591174   0.659965  -0.000105  -0.011056  -0.000078  -0.000001
     2  C    0.659965   4.933951  -0.028957   0.422694  -0.028106   0.000832
     3  C   -0.000105  -0.028957   4.826245   0.503808  -0.029521  -0.009713
     4  C   -0.011056   0.422694   0.503808   4.776841   0.461649  -0.028932
     5  C   -0.000078  -0.028106  -0.029521   0.461649   4.826839   0.530043
     6  C   -0.000001   0.000832  -0.009713  -0.028932   0.530043   4.832575
     7  C    0.000000   0.000013  -0.026005  -0.008863  -0.026255   0.461107
     8  C   -0.000001   0.000840   0.482365  -0.027615  -0.008935  -0.027352
     9  C    0.000000  -0.000005  -0.027633   0.000746   0.000030   0.000843
    10  C    0.000000   0.000000   0.000734  -0.000007   0.000000   0.000039
    11  C    0.000000   0.000000   0.000002   0.000000  -0.000005   0.000520
    12  C    0.000000   0.000000   0.000755   0.000031   0.000657  -0.024376
    13  N    0.000000   0.000000   0.000000   0.000000   0.000001  -0.000218
    14  C    0.000000   0.000000  -0.000007   0.000000   0.000018  -0.005031
    15  H    0.000061  -0.003430   0.385321  -0.025600   0.001281   0.000027
    16  H    0.000058  -0.002990   0.001223  -0.025131   0.387383  -0.024757
    17  H    0.000000  -0.000016   0.000022   0.001368  -0.025962   0.385921
    18  H    0.000000   0.000000  -0.003396   0.000010  -0.000001  -0.000017
    19  H    0.000000   0.000000  -0.000021   0.000000   0.000000   0.000001
               7          8          9         10         11         12
     1  N    0.000000  -0.000001   0.000000   0.000000   0.000000   0.000000
     2  C    0.000013   0.000840  -0.000005   0.000000   0.000000   0.000000
     3  C   -0.026005   0.482365  -0.027633   0.000734   0.000002   0.000755
     4  C   -0.008863  -0.027615   0.000746  -0.000007   0.000000   0.000031
     5  C   -0.026255  -0.008935   0.000030   0.000000  -0.000005   0.000657
     6  C    0.461107  -0.027352   0.000843   0.000039   0.000520  -0.024376
     7  C    4.821765   0.456622  -0.028687  -0.011864  -0.017359   0.448103
     8  C    0.456622   4.806666   0.457134  -0.029816  -0.005856  -0.029908
     9  C   -0.028687   0.457134   4.867420   0.522043  -0.017066  -0.012436
    10  C   -0.011864  -0.029816   0.522043   4.917205   0.391852  -0.029213
    11  C   -0.017359  -0.005856  -0.017066   0.391852   5.471167   0.436621
    12  C    0.448103  -0.029908  -0.012436  -0.029213   0.436621   4.902138
    13  N    0.000083  -0.000001   0.000000  -0.000002  -0.000068  -0.010859
    14  C   -0.037882   0.000815   0.000005   0.001440  -0.033971   0.402682
    15  H    0.001244  -0.024477  -0.003370   0.000018   0.000000  -0.000016
    16  H    0.001318   0.000029   0.000001   0.000000   0.000000  -0.000014
    17  H   -0.025252   0.001269  -0.000017   0.000000   0.000016  -0.003188
    18  H    0.001216  -0.027497   0.381148  -0.023752   0.001038   0.000080
    19  H    0.000001   0.001562  -0.035743   0.379166  -0.031085   0.002111
              13         14         15         16         17         18
     1  N    0.000000   0.000000   0.000061   0.000058   0.000000   0.000000
     2  C    0.000000   0.000000  -0.003430  -0.002990  -0.000016   0.000000
     3  C    0.000000  -0.000007   0.385321   0.001223   0.000022  -0.003396
     4  C    0.000000   0.000000  -0.025600  -0.025131   0.001368   0.000010
     5  C    0.000001   0.000018   0.001281   0.387383  -0.025962  -0.000001
     6  C   -0.000218  -0.005031   0.000027  -0.024757   0.385921  -0.000017
     7  C    0.000083  -0.037882   0.001244   0.001318  -0.025252   0.001216
     8  C   -0.000001   0.000815  -0.024477   0.000029   0.001269  -0.027497
     9  C    0.000000   0.000005  -0.003370   0.000001  -0.000017   0.381148
    10  C   -0.000002   0.001440   0.000018   0.000000   0.000000  -0.023752
    11  C   -0.000068  -0.033971   0.000000   0.000000   0.000016   0.001038
    12  C   -0.010859   0.402682  -0.000016  -0.000014  -0.003188   0.000080
    13  N    6.633623   0.659065   0.000000   0.000000  -0.000126   0.000000
    14  C    0.659065   4.974088   0.000000   0.000000   0.002110   0.000001
    15  H    0.000000   0.000000   0.601629  -0.000034   0.000002   0.001062
    16  H    0.000000   0.000000  -0.000034   0.602989  -0.003851   0.000000
    17  H   -0.000126   0.002110   0.000002  -0.003851   0.593484   0.000000
    18  H    0.000000   0.000001   0.001062   0.000000   0.000000   0.633471
    19  H    0.000000  -0.000014  -0.000002   0.000000   0.000000  -0.004102
              19
     1  N    0.000000
     2  C    0.000000
     3  C   -0.000021
     4  C    0.000000
     5  C    0.000000
     6  C    0.000001
     7  C    0.000001
     8  C    0.001562
     9  C   -0.035743
    10  C    0.379166
    11  C   -0.031085
    12  C    0.002111
    13  N    0.000000
    14  C   -0.000014
    15  H   -0.000002
    16  H    0.000000
    17  H    0.000000
    18  H   -0.004102
    19  H    0.661523
 Mulliken charges:
               1
     1  N   -0.240018
     2  C    0.045211
     3  C   -0.075118
     4  C   -0.039943
     5  C   -0.089039
     6  C   -0.091513
     7  C   -0.009304
     8  C   -0.025845
     9  C   -0.104412
    10  C   -0.117844
    11  C   -0.195806
    12  C   -0.083171
    13  N   -0.281496
    14  C    0.036680
    15  H    0.066282
    16  H    0.063776
    17  H    0.074219
    18  H    0.040739
    19  H    0.026601
 Sum of Mulliken charges =  -1.00000
 Mulliken charges with hydrogens summed into heavy atoms:
               1
     1  N   -0.240018
     2  C    0.045211
     3  C   -0.008835
     4  C   -0.039943
     5  C   -0.025264
     6  C   -0.017294
     7  C   -0.009304
     8  C   -0.025845
     9  C   -0.063673
    10  C   -0.091242
    11  C   -0.195806
    12  C   -0.083171
    13  N   -0.281496
    14  C    0.036680
 Electronic spatial extent (au):  <R**2>=           2920.6738
 Charge=             -1.0000 electrons
 Dipole moment (field-independent basis, Debye):
    X=             -5.1210    Y=              1.1028    Z=              0.0005  Tot=              5.2384
 Quadrupole moment (field-independent basis, Debye-Ang):
   XX=           -142.1283   YY=            -85.1209   ZZ=            -74.1414
   XY=              3.2874   XZ=             -0.0052   YZ=              0.0015
 Traceless Quadrupole moment (field-independent basis, Debye-Ang):
   XX=            -41.6647   YY=             15.3426   ZZ=             26.3221
   XY=              3.2874   XZ=             -0.0052   YZ=              0.0015
 Octapole moment (field-independent basis, Debye-Ang**2):
  XXX=             27.0841  YYY=             15.1746  ZZZ=             -0.0002  XYY=            -53.3202
  XXY=             30.2186  XXZ=              0.0141  XZZ=             -1.1946  YZZ=             -2.6300
  YYZ=             -0.0024  XYZ=              0.0042
 Hexadecapole moment (field-independent basis, Debye-Ang**3):
 XXXX=          -4071.3204 YYYY=          -1052.2170 ZZZZ=            -58.3432 XXXY=             24.9373
 XXXZ=             -0.1125 YYYX=             75.9545 YYYZ=              0.0130 ZZZX=              0.0054
 ZZZY=             -0.0012 XXYY=           -761.8430 XXZZ=           -450.3025 YYZZ=           -179.3136
 XXYZ=              0.0087 YYXZ=             -0.0106 ZZXY=             -6.6975
 N-N= 6.927533503008D+02 E-N=-2.707528940218D+03  KE= 5.547526792250D+02
 1\1\GINC-N037\FOpt\RB3LYP\STO-3G\C12H5N2(1-)\R2532\15-Jun-2021\0\\#N B
 3LYP/STO-3G OPT\\2Naph\\-1,1\N,1.1347487563,-0.1812891492,-0.073063589
 9\C,2.3342694443,-0.1440729743,-0.0744182489\C,4.5485784952,-1.2818074
 955,-0.0753559794\C,3.7920278383,-0.0956123205,-0.0750150797\C,4.47381
 78749,1.1760538773,-0.0752561179\C,5.8578507064,1.2246714043,-0.075848
 0967\C,6.6650142687,0.0275560853,-0.0762657596\C,5.9743078252,-1.24983
 14684,-0.0759842774\C,6.7862683008,-2.4468120674,-0.0762715482\C,8.167
 9107204,-2.3561294385,-0.076684884\C,8.9975779797,-1.1256306144,-0.077
 4249016\C,8.1196478816,0.0134446549,-0.0770914396\N,9.3254609381,2.404
 0024807,-0.0783266976\C,8.7685509491,1.3409878928,-0.0777961814\H,4.03
 44623836,-2.2534398802,-0.0751429031\H,3.8780364281,2.0981785028,-0.07
 49895388\H,6.3720141678,2.1958864239,-0.0760525168\H,6.2632655185,-3.4
 157511216,-0.0760569393\H,8.703799523,-3.3246547918,-0.0765753\\Versio
 n=ES64L-G09RevD.01\State=1-A\HF=-562.5211962\RMSD=8.170e-09\RMSF=1.943
 e-05\Dipole=-1.9908057,-0.5331611,0.000948\Quadrupole=-30.630861,11.06
 10417,19.5698193,-4.5289467,0.0312045,0.0047829\PG=C01 [X(C12H5N2)]\\@


 Time has a wonderful way of weeding out the trivial.
                                -- Richard Ben Sapir
 Job cpu time:       0 days  0 hours  4 minutes 24.6 seconds.
 File lengths (MBytes):  RWF=      5 Int=      0 D2E=      0 Chk=      2 Scr=      1
 Normal termination of Gaussian 09 at Tue Jun 15 11:13:19 2021.
