 Entering Gaussian System, Link 0=/usr/local/apps//g09/g09
 Input=17.com
 Output=17.out
 Initial command:
 /usr/local/apps//g09/l1.exe "/tmp/bnp.472629.sequoia/Gau-9969.inp" -scrdir="/tmp/bnp.472629.sequoia/"
 Entering Link 1 = /usr/local/apps//g09/l1.exe PID=      9970.
  
 Copyright (c) 1988,1990,1992,1993,1995,1998,2003,2009,2013,
            Gaussian, Inc.  All Rights Reserved.
  
 This is part of the Gaussian(R) 09 program.  It is based on
 the Gaussian(R) 03 system (copyright 2003, Gaussian, Inc.),
 the Gaussian(R) 98 system (copyright 1998, Gaussian, Inc.),
 the Gaussian(R) 94 system (copyright 1995, Gaussian, Inc.),
 the Gaussian 92(TM) system (copyright 1992, Gaussian, Inc.),
 the Gaussian 90(TM) system (copyright 1990, Gaussian, Inc.),
 the Gaussian 88(TM) system (copyright 1988, Gaussian, Inc.),
 the Gaussian 86(TM) system (copyright 1986, Carnegie Mellon
 University), and the Gaussian 82(TM) system (copyright 1983,
 Carnegie Mellon University). Gaussian is a federally registered
 trademark of Gaussian, Inc.
  
 This software contains proprietary and confidential information,
 including trade secrets, belonging to Gaussian, Inc.
  
 This software is provided under written license and may be
 used, copied, transmitted, or stored only in accord with that
 written license.
  
 The following legend is applicable only to US Government
 contracts under FAR:
  
                    RESTRICTED RIGHTS LEGEND
  
 Use, reproduction and disclosure by the US Government is
 subject to restrictions as set forth in subparagraphs (a)
 and (c) of the Commercial Computer Software - Restricted
 Rights clause in FAR 52.227-19.
  
 Gaussian, Inc.
 340 Quinnipiac St., Bldg. 40, Wallingford CT 06492
  
  
 ---------------------------------------------------------------
 Warning -- This program may not be used in any manner that
 competes with the business of Gaussian, Inc. or will provide
 assistance to any competitor of Gaussian, Inc.  The licensee
 of this program is prohibited from giving any competitor of
 Gaussian, Inc. access to this program.  By using this program,
 the user acknowledges that Gaussian, Inc. is engaged in the
 business of creating and licensing software in the field of
 computational chemistry and represents and warrants to the
 licensee that it is not a competitor of Gaussian, Inc. and that
 it will not use this program in any manner prohibited above.
 ---------------------------------------------------------------
  

 Cite this work as:
 Gaussian 09, Revision D.01,
 M. J. Frisch, G. W. Trucks, H. B. Schlegel, G. E. Scuseria, 
 M. A. Robb, J. R. Cheeseman, G. Scalmani, V. Barone, B. Mennucci, 
 G. A. Petersson, H. Nakatsuji, M. Caricato, X. Li, H. P. Hratchian, 
 A. F. Izmaylov, J. Bloino, G. Zheng, J. L. Sonnenberg, M. Hada, 
 M. Ehara, K. Toyota, R. Fukuda, J. Hasegawa, M. Ishida, T. Nakajima, 
 Y. Honda, O. Kitao, H. Nakai, T. Vreven, J. A. Montgomery, Jr., 
 J. E. Peralta, F. Ogliaro, M. Bearpark, J. J. Heyd, E. Brothers, 
 K. N. Kudin, V. N. Staroverov, T. Keith, R. Kobayashi, J. Normand, 
 K. Raghavachari, A. Rendell, J. C. Burant, S. S. Iyengar, J. Tomasi, 
 M. Cossi, N. Rega, J. M. Millam, M. Klene, J. E. Knox, J. B. Cross, 
 V. Bakken, C. Adamo, J. Jaramillo, R. Gomperts, R. E. Stratmann, 
 O. Yazyev, A. J. Austin, R. Cammi, C. Pomelli, J. W. Ochterski, 
 R. L. Martin, K. Morokuma, V. G. Zakrzewski, G. A. Voth, 
 P. Salvador, J. J. Dannenberg, S. Dapprich, A. D. Daniels, 
 O. Farkas, J. B. Foresman, J. V. Ortiz, J. Cioslowski, 
 and D. J. Fox, Gaussian, Inc., Wallingford CT, 2013.
 
 ******************************************
 Gaussian 09:  ES64L-G09RevD.01 24-Apr-2013
                15-Jun-2021 
 ******************************************
 -------------------
 #N B3LYP/STO-3G OPT
 -------------------
 1/14=-1,18=20,19=15,26=3,38=1/1,3;
 2/9=110,12=2,17=6,18=5,40=1/2;
 3/6=3,11=2,16=1,25=1,30=1,71=1,74=-5/1,2,3;
 4//1;
 5/5=2,38=5/2;
 6/7=2,8=2,9=2,10=2,28=1/1;
 7//1,2,3,16;
 1/14=-1,18=20,19=15,26=3/3(2);
 2/9=110/2;
 99//99;
 2/9=110/2;
 3/6=3,11=2,16=1,25=1,30=1,71=1,74=-5/1,2,3;
 4/5=5,16=3,69=1/1;
 5/5=2,38=5/2;
 7//1,2,3,16;
 1/14=-1,18=20,19=15,26=3/3(-5);
 2/9=110/2;
 6/7=2,8=2,9=2,10=2,19=2,28=1/1;
 99/9=1/99;
 -----
 2Naph
 -----
 Symbolic Z-matrix:
 Charge = -1 Multiplicity = 1
 N                     1.16728  -0.06036   0.06832 
 C                     2.3263   -0.02785   0.06891 
 C                     4.51302  -1.15623   0.06697 
 C                     3.76084   0.02515   0.06797 
 C                     4.41147   1.26127   0.06712 
 C                     5.81185   1.32087   0.06572 
 C                     6.57532   0.13707   0.06573 
 C                     5.92003  -1.11679   0.06641 
 C                     6.69419  -2.29233   0.06589 
 C                     8.09111  -2.23353   0.06462 
 C                     8.73413  -1.00175   0.06409 
 C                     7.97892   0.16525   0.0648 
 N                     6.95575   3.65219   0.06408 
 C                     6.44899   2.60831   0.06458 
 H                     3.99812  -2.11736   0.06722 
 H                     3.82963   2.18358   0.06736 
 H                     6.21622  -3.27067   0.06591 
 H                     8.67746  -3.14948   0.06404 
 H                     9.81857  -0.93839   0.06331 
 

 GradGradGradGradGradGradGradGradGradGradGradGradGradGradGradGradGradGrad
 Berny optimization.
 Initialization pass.
                           ----------------------------
                           !    Initial Parameters    !
                           ! (Angstroms and Degrees)  !
 --------------------------                            --------------------------
 ! Name  Definition              Value          Derivative Info.                !
 --------------------------------------------------------------------------------
 ! R1    R(1,2)                  1.1595         estimate D2E/DX2                !
 ! R2    R(2,4)                  1.4355         estimate D2E/DX2                !
 ! R3    R(3,4)                  1.4005         estimate D2E/DX2                !
 ! R4    R(3,8)                  1.4076         estimate D2E/DX2                !
 ! R5    R(3,15)                 1.0904         estimate D2E/DX2                !
 ! R6    R(4,5)                  1.3969         estimate D2E/DX2                !
 ! R7    R(5,6)                  1.4016         estimate D2E/DX2                !
 ! R8    R(5,16)                 1.0905         estimate D2E/DX2                !
 ! R9    R(6,7)                  1.4086         estimate D2E/DX2                !
 ! R10   R(6,14)                 1.4365         estimate D2E/DX2                !
 ! R11   R(7,8)                  1.4148         estimate D2E/DX2                !
 ! R12   R(7,12)                 1.4039         estimate D2E/DX2                !
 ! R13   R(8,9)                  1.4076         estimate D2E/DX2                !
 ! R14   R(9,10)                 1.3982         estimate D2E/DX2                !
 ! R15   R(9,17)                 1.0889         estimate D2E/DX2                !
 ! R16   R(10,11)                1.3895         estimate D2E/DX2                !
 ! R17   R(10,18)                1.0876         estimate D2E/DX2                !
 ! R18   R(11,12)                1.39           estimate D2E/DX2                !
 ! R19   R(11,19)                1.0863         estimate D2E/DX2                !
 ! R20   R(13,14)                1.1604         estimate D2E/DX2                !
 ! A1    A(4,3,8)              120.8791         estimate D2E/DX2                !
 ! A2    A(4,3,15)             119.3362         estimate D2E/DX2                !
 ! A3    A(8,3,15)             119.7846         estimate D2E/DX2                !
 ! A4    A(2,4,3)              120.3689         estimate D2E/DX2                !
 ! A5    A(2,4,5)              119.8759         estimate D2E/DX2                !
 ! A6    A(3,4,5)              119.7552         estimate D2E/DX2                !
 ! A7    A(4,5,6)              120.1971         estimate D2E/DX2                !
 ! A8    A(4,5,16)             119.9942         estimate D2E/DX2                !
 ! A9    A(6,5,16)             119.8088         estimate D2E/DX2                !
 ! A10   A(5,6,7)              120.3822         estimate D2E/DX2                !
 ! A11   A(5,6,14)             118.7674         estimate D2E/DX2                !
 ! A12   A(7,6,14)             120.8504         estimate D2E/DX2                !
 ! A13   A(6,7,8)              119.5884         estimate D2E/DX2                !
 ! A14   A(6,7,12)             121.6691         estimate D2E/DX2                !
 ! A15   A(8,7,12)             118.7426         estimate D2E/DX2                !
 ! A16   A(3,8,7)              119.198          estimate D2E/DX2                !
 ! A17   A(3,8,9)              121.7615         estimate D2E/DX2                !
 ! A18   A(7,8,9)              119.0404         estimate D2E/DX2                !
 ! A19   A(8,9,10)             120.9569         estimate D2E/DX2                !
 ! A20   A(8,9,17)             120.5949         estimate D2E/DX2                !
 ! A21   A(10,9,17)            118.4482         estimate D2E/DX2                !
 ! A22   A(9,10,11)            119.976          estimate D2E/DX2                !
 ! A23   A(9,10,18)            120.2153         estimate D2E/DX2                !
 ! A24   A(11,10,18)           119.8087         estimate D2E/DX2                !
 ! A25   A(10,11,12)           119.5259         estimate D2E/DX2                !
 ! A26   A(10,11,19)           120.9095         estimate D2E/DX2                !
 ! A27   A(12,11,19)           119.5647         estimate D2E/DX2                !
 ! A28   A(7,12,11)            121.7583         estimate D2E/DX2                !
 ! A29   L(1,2,4,16,-1)        179.4908         estimate D2E/DX2                !
 ! A30   L(6,14,13,19,-1)      180.4357         estimate D2E/DX2                !
 ! A31   L(1,2,4,16,-2)        180.0821         estimate D2E/DX2                !
 ! A32   L(6,14,13,19,-2)      180.0219         estimate D2E/DX2                !
 ! D1    D(8,3,4,2)           -179.9826         estimate D2E/DX2                !
 ! D2    D(8,3,4,5)              0.0615         estimate D2E/DX2                !
 ! D3    D(15,3,4,2)            -0.0185         estimate D2E/DX2                !
 ! D4    D(15,3,4,5)          -179.9745         estimate D2E/DX2                !
 ! D5    D(4,3,8,7)             -0.0528         estimate D2E/DX2                !
 ! D6    D(4,3,8,9)            179.9767         estimate D2E/DX2                !
 ! D7    D(15,3,8,7)           179.9833         estimate D2E/DX2                !
 ! D8    D(15,3,8,9)             0.0129         estimate D2E/DX2                !
 ! D9    D(2,4,5,6)           -179.9773         estimate D2E/DX2                !
 ! D10   D(2,4,5,16)             0.0114         estimate D2E/DX2                !
 ! D11   D(3,4,5,6)             -0.0211         estimate D2E/DX2                !
 ! D12   D(3,4,5,16)           179.9676         estimate D2E/DX2                !
 ! D13   D(4,5,6,7)             -0.027          estimate D2E/DX2                !
 ! D14   D(4,5,6,14)           179.9866         estimate D2E/DX2                !
 ! D15   D(16,5,6,7)           179.9842         estimate D2E/DX2                !
 ! D16   D(16,5,6,14)           -0.0022         estimate D2E/DX2                !
 ! D17   D(5,6,7,8)              0.0351         estimate D2E/DX2                !
 ! D18   D(5,6,7,12)          -179.9783         estimate D2E/DX2                !
 ! D19   D(14,6,7,8)          -179.9787         estimate D2E/DX2                !
 ! D20   D(14,6,7,12)            0.0079         estimate D2E/DX2                !
 ! D21   D(6,7,8,3)              0.0044         estimate D2E/DX2                !
 ! D22   D(6,7,8,9)            179.9757         estimate D2E/DX2                !
 ! D23   D(12,7,8,3)          -179.9825         estimate D2E/DX2                !
 ! D24   D(12,7,8,9)            -0.0113         estimate D2E/DX2                !
 ! D25   D(6,7,12,11)         -179.9652         estimate D2E/DX2                !
 ! D26   D(8,7,12,11)            0.0215         estimate D2E/DX2                !
 ! D27   D(3,8,9,10)           179.9657         estimate D2E/DX2                !
 ! D28   D(3,8,9,17)             0.0            estimate D2E/DX2                !
 ! D29   D(7,8,9,10)            -0.0047         estimate D2E/DX2                !
 ! D30   D(7,8,9,17)          -179.9705         estimate D2E/DX2                !
 ! D31   D(8,9,10,11)            0.0113         estimate D2E/DX2                !
 ! D32   D(8,9,10,18)         -179.9884         estimate D2E/DX2                !
 ! D33   D(17,9,10,11)         179.9778         estimate D2E/DX2                !
 ! D34   D(17,9,10,18)          -0.0219         estimate D2E/DX2                !
 ! D35   D(9,10,11,12)          -0.0015         estimate D2E/DX2                !
 ! D36   D(9,10,11,19)         179.9874         estimate D2E/DX2                !
 ! D37   D(18,10,11,12)        179.9983         estimate D2E/DX2                !
 ! D38   D(18,10,11,19)         -0.0129         estimate D2E/DX2                !
 ! D39   D(10,11,12,7)          -0.0152         estimate D2E/DX2                !
 ! D40   D(19,11,12,7)         179.9958         estimate D2E/DX2                !
 --------------------------------------------------------------------------------
 Trust Radius=3.00D-01 FncErr=1.00D-07 GrdErr=1.00D-06
 Number of steps in this run=    102 maximum allowed number of steps=    114.
 GradGradGradGradGradGradGradGradGradGradGradGradGradGradGradGradGradGrad

                          Input orientation:                          
 ---------------------------------------------------------------------
 Center     Atomic      Atomic             Coordinates (Angstroms)
 Number     Number       Type             X           Y           Z
 ---------------------------------------------------------------------
      1          7           0        1.167280   -0.060360    0.068320
      2          6           0        2.326300   -0.027850    0.068910
      3          6           0        4.513020   -1.156230    0.066970
      4          6           0        3.760840    0.025150    0.067970
      5          6           0        4.411470    1.261270    0.067120
      6          6           0        5.811850    1.320870    0.065720
      7          6           0        6.575320    0.137070    0.065730
      8          6           0        5.920030   -1.116790    0.066410
      9          6           0        6.694190   -2.292330    0.065890
     10          6           0        8.091110   -2.233530    0.064620
     11          6           0        8.734130   -1.001750    0.064090
     12          6           0        7.978920    0.165250    0.064800
     13          7           0        6.955750    3.652190    0.064080
     14          6           0        6.448990    2.608310    0.064580
     15          1           0        3.998120   -2.117360    0.067220
     16          1           0        3.829630    2.183580    0.067360
     17          1           0        6.216220   -3.270670    0.065910
     18          1           0        8.677460   -3.149480    0.064040
     19          1           0        9.818570   -0.938390    0.063310
 ---------------------------------------------------------------------
                    Distance matrix (angstroms):
                    1          2          3          4          5
     1  N    0.000000
     2  C    1.159476   0.000000
     3  C    3.520640   2.460689   0.000000
     4  C    2.594969   1.435519   1.400512   0.000000
     5  C    3.503067   2.451483   2.419632   1.396894   0.000000
     6  C    4.845599   3.737394   2.796960   2.426013   1.401648
     7  C    5.411643   4.252221   2.434278   2.816705   2.438457
     8  C    4.868745   3.755089   1.407563   2.442566   2.816189
     9  C    5.960573   4.919994   2.459314   3.738350   4.223610
    10  C    7.256866   6.172364   3.736751   4.883942   5.074779
    11  C    7.625185   6.481419   4.223937   5.078204   4.879207
    12  C    6.815376   5.655919   3.709283   4.220407   3.732019
    13  N    6.876731   5.913926   5.393314   4.833517   3.491399
    14  C    5.917624   4.893458   4.233172   3.728120   2.442542
    15  H    3.499272   2.676011   1.090364   2.155609   3.403821
    16  H    3.481864   2.674028   3.409011   2.159526   1.090502
    17  H    5.983134   5.064323   2.715096   4.109906   4.878074
    18  H    8.120683   7.076852   4.616884   5.852473   6.136236
    19  H    8.695733   7.547399   5.310022   6.133883   5.837401
                    6          7          8          9         10
     6  C    0.000000
     7  C    1.408641   0.000000
     8  C    2.440059   1.414769   0.000000
     9  C    3.719373   2.432306   1.407558   0.000000
    10  C    4.222415   2.813781   2.441454   1.398158   0.000000
    11  C    3.732866   2.440773   2.816451   2.413909   1.389517
    12  C    2.455942   1.403883   2.425419   2.773127   2.401402
    13  N    2.596837   3.535647   4.880153   5.950272   5.994226
    14  C    1.436472   2.474467   3.762469   4.906771   5.112727
    15  H    3.887293   3.424094   2.166767   2.701742   4.094639
    16  H    2.161820   3.424474   3.906689   5.314083   6.137677
    17  H    4.609312   3.426608   2.174150   1.088855   2.142632
    18  H    5.309967   3.901334   3.425676   2.160572   1.087553
    19  H    4.599790   3.416912   3.902621   3.405130   2.159052
                   11         12         13         14         15
    11  C    0.000000
    12  C    1.390047   0.000000
    13  N    4.982147   3.633955   0.000000
    14  C    4.272517   2.882573   1.160384   0.000000
    15  H    4.865633   4.588800   6.483463   5.323413   0.000000
    16  H    5.848116   4.614138   3.453904   2.653573   4.304239
    17  H    3.389376   3.861691   6.962248   5.883586   2.500019
    18  H    2.148478   3.387535   7.016196   6.173996   4.791816
    19  H    1.086290   2.145305   5.410098   4.892152   5.938655
                   16         17         18         19
    16  H    0.000000
    17  H    5.953542   0.000000
    18  H    7.207149   2.464223   0.000000
    19  H    6.753822   4.291441   2.488182   0.000000
 Stoichiometry    C12H5N2(1-)
 Framework group  C1[X(C12H5N2)]
 Deg. of freedom    51
 Full point group                 C1      NOp   1
 Largest Abelian subgroup         C1      NOp   1
 Largest concise Abelian subgroup C1      NOp   1
                         Standard orientation:                         
 ---------------------------------------------------------------------
 Center     Atomic      Atomic             Coordinates (Angstroms)
 Number     Number       Type             X           Y           Z
 ---------------------------------------------------------------------
      1          7           0        4.414327   -0.949182    0.000855
      2          6           0        3.281985   -0.699811   -0.000536
      3          6           0        0.922400   -1.397913    0.000153
      4          6           0        1.882859   -0.378623   -0.000590
      5          6           0        1.475685    0.957611   -0.000456
      6          6           0        0.111350    1.278873   -0.000028
      7          6           0       -0.860652    0.259323   -0.000302
      8          6           0       -0.452228   -1.095210   -0.000259
      9          6           0       -1.433181   -2.104640   -0.000012
     10          6           0       -2.794267   -1.784814    0.000289
     11          6           0       -3.194781   -0.454270    0.000109
     12          6           0       -2.234043    0.550327   -0.000340
     13          7           0       -0.574870    3.783401    0.000318
     14          6           0       -0.272946    2.662985    0.000393
     15          1           0        1.247844   -2.438576    0.000466
     16          1           0        2.220225    1.754388   -0.000500
     17          1           0       -1.147240   -3.155279    0.000510
     18          1           0       -3.542044   -2.574497    0.000668
     19          1           0       -4.248079   -0.188587    0.000132
 ---------------------------------------------------------------------
 Rotational constants (GHZ):      1.0158206      0.6031617      0.3784502
 Standard basis: STO-3G (5D, 7F)
 There are    75 symmetry adapted cartesian basis functions of A   symmetry.
 There are    75 symmetry adapted basis functions of A   symmetry.
    75 basis functions,   225 primitive gaussians,    75 cartesian basis functions
    46 alpha electrons       46 beta electrons
       nuclear repulsion energy       708.1216241180 Hartrees.
 NAtoms=   19 NActive=   19 NUniq=   19 SFac= 1.00D+00 NAtFMM=   60 NAOKFM=F Big=F
 Integral buffers will be    131072 words long.
 Raffenetti 2 integral format.
 Two-electron integral symmetry is turned on.
 One-electron integrals computed using PRISM.
 NBasis=    75 RedAO= T EigKep=  1.55D-01  NBF=    75
 NBsUse=    75 1.00D-06 EigRej= -1.00D+00 NBFU=    75
 ExpMin= 1.69D-01 ExpMax= 9.91D+01 ExpMxC= 9.91D+01 IAcc=1 IRadAn=         1 AccDes= 0.00D+00
 Harris functional with IExCor=  402 and IRadAn=       1 diagonalized for initial guess.
 HarFok:  IExCor=  402 AccDes= 0.00D+00 IRadAn=         1 IDoV= 1 UseB2=F ITyADJ=14
 ICtDFT=  3500011 ScaDFX=  1.000000  1.000000  1.000000  1.000000
 FoFCou: FMM=F IPFlag=           0 FMFlag=      100000 FMFlg1=           0
         NFxFlg=           0 DoJE=T BraDBF=F KetDBF=T FulRan=T
         wScrn=  0.000000 ICntrl=     500 IOpCl=  0 I1Cent=   200000004 NGrid=           0
         NMat0=    1 NMatS0=      1 NMatT0=    0 NMatD0=    1 NMtDS0=    0 NMtDT0=    0
 Petite list used in FoFCou.
 Keep R1 ints in memory in canonical form, NReq=4993994.
 Requested convergence on RMS density matrix=1.00D-08 within 128 cycles.
 Requested convergence on MAX density matrix=1.00D-06.
 Requested convergence on             energy=1.00D-06.
 No special actions if energy rises.
 Integral accuracy reduced to 1.0D-05 until final iterations.
 EnCoef did     6 forward-backward iterations
 EnCoef did     4 forward-backward iterations
 EnCoef did     2 forward-backward iterations
 Rare condition: small coef for last iteration:  0.000D+00
 Rare condition: small coef for last iteration:  0.000D+00
 Rare condition: small coef for last iteration:  0.000D+00
 EnCoef did   100 forward-backward iterations
 EnCoef did   100 forward-backward iterations
 Initial convergence to 1.0D-05 achieved.  Increase integral accuracy.
 SCF Done:  E(RB3LYP) =  -562.472125477     A.U. after   32 cycles
            NFock= 32  Conv=0.91D-08     -V/T= 2.0129

 **********************************************************************

            Population analysis using the SCF density.

 **********************************************************************

 Orbital symmetries:
       Occupied  (A) (A) (A) (A) (A) (A) (A) (A) (A) (A) (A) (A)
                 (A) (A) (A) (A) (A) (A) (A) (A) (A) (A) (A) (A)
                 (A) (A) (A) (A) (A) (A) (A) (A) (A) (A) (A) (A)
                 (A) (A) (A) (A) (A) (A) (A) (A) (A) (A)
       Virtual   (A) (A) (A) (A) (A) (A) (A) (A) (A) (A) (A) (A)
                 (A) (A) (A) (A) (A) (A) (A) (A) (A) (A) (A) (A)
                 (A) (A) (A) (A) (A)
 The electronic state is 1-A.
 Alpha  occ. eigenvalues --  -13.99379 -13.96989  -9.90290  -9.90098  -9.88871
 Alpha  occ. eigenvalues --   -9.87987  -9.87750  -9.86697  -9.85868  -9.83687
 Alpha  occ. eigenvalues --   -9.83588  -9.82622  -9.79752  -9.66789  -0.74701
 Alpha  occ. eigenvalues --   -0.72198  -0.68209  -0.62383  -0.58972  -0.55400
 Alpha  occ. eigenvalues --   -0.50288  -0.45744  -0.43756  -0.40123  -0.34302
 Alpha  occ. eigenvalues --   -0.31994  -0.30751  -0.28935  -0.25297  -0.22614
 Alpha  occ. eigenvalues --   -0.21927  -0.21325  -0.19203  -0.18026  -0.17137
 Alpha  occ. eigenvalues --   -0.15464  -0.15174  -0.15127  -0.13083  -0.12784
 Alpha  occ. eigenvalues --   -0.11173  -0.10889  -0.06334  -0.03973   0.02291
 Alpha  occ. eigenvalues --    0.13749
 Alpha virt. eigenvalues --    0.17069   0.20656   0.27030   0.27837   0.29870
 Alpha virt. eigenvalues --    0.30651   0.36147   0.39246   0.44639   0.48985
 Alpha virt. eigenvalues --    0.49111   0.53408   0.56420   0.56732   0.60440
 Alpha virt. eigenvalues --    0.62612   0.64438   0.65605   0.71279   0.73038
 Alpha virt. eigenvalues --    0.74750   0.78695   0.82848   0.86743   0.87626
 Alpha virt. eigenvalues --    0.99225   1.00086   1.14212   1.16479
          Condensed to atoms (all electrons):
               1          2          3          4          5          6
     1  N    6.579756   0.687442  -0.000136  -0.011586  -0.000156  -0.000001
     2  C    0.687442   4.893425  -0.030654   0.429562  -0.031586   0.000984
     3  C   -0.000136  -0.030654   4.853612   0.498431  -0.031575  -0.010339
     4  C   -0.011586   0.429562   0.498431   4.758500   0.486432  -0.029919
     5  C   -0.000156  -0.031586  -0.031575   0.486432   4.835534   0.504832
     6  C   -0.000001   0.000984  -0.010339  -0.029919   0.504832   4.773323
     7  C    0.000000   0.000016  -0.027991  -0.009748  -0.029479   0.463375
     8  C   -0.000001   0.000966   0.477962  -0.028745  -0.009406  -0.035012
     9  C    0.000000  -0.000007  -0.032613   0.000890   0.000045   0.000955
    10  C    0.000000   0.000000   0.000913  -0.000010   0.000001  -0.000012
    11  C    0.000000   0.000000   0.000048   0.000001  -0.000014   0.001242
    12  C    0.000000   0.000000   0.001141   0.000041   0.000930  -0.038742
    13  N    0.000000   0.000000   0.000000  -0.000001  -0.000207  -0.010797
    14  C    0.000000  -0.000007   0.000017   0.001013  -0.033223   0.426757
    15  H    0.000059  -0.003749   0.387068  -0.026876   0.001439   0.000023
    16  H    0.000064  -0.003847   0.001410  -0.025666   0.389694  -0.024831
    17  H    0.000000  -0.000001  -0.004048   0.000019  -0.000001  -0.000022
    18  H    0.000000   0.000000  -0.000016   0.000000   0.000000   0.000002
    19  H    0.000000   0.000000   0.000002   0.000000   0.000000  -0.000005
               7          8          9         10         11         12
     1  N    0.000000  -0.000001   0.000000   0.000000   0.000000   0.000000
     2  C    0.000016   0.000966  -0.000007   0.000000   0.000000   0.000000
     3  C   -0.027991   0.477962  -0.032613   0.000913   0.000048   0.001141
     4  C   -0.009748  -0.028745   0.000890  -0.000010   0.000001   0.000041
     5  C   -0.029479  -0.009406   0.000045   0.000001  -0.000014   0.000930
     6  C    0.463375  -0.035012   0.000955  -0.000012   0.001242  -0.038742
     7  C    4.829572   0.450049  -0.032591  -0.011605  -0.028152   0.460391
     8  C    0.450049   4.795087   0.488432  -0.027230  -0.011631  -0.030541
     9  C   -0.032591   0.488432   4.866665   0.516981  -0.033040  -0.013815
    10  C   -0.011605  -0.027230   0.516981   4.845747   0.482254  -0.029438
    11  C   -0.028152  -0.011631  -0.033040   0.482254   4.876266   0.494400
    12  C    0.460391  -0.030541  -0.013815  -0.029438   0.494400   5.380650
    13  N   -0.000061  -0.000003   0.000000   0.000000   0.000001  -0.000434
    14  C   -0.029415   0.001076  -0.000006   0.000001   0.000004   0.000729
    15  H    0.001411  -0.024908  -0.003865   0.000019  -0.000002  -0.000029
    16  H    0.001349   0.000029   0.000001   0.000000   0.000000  -0.000022
    17  H    0.001346  -0.025914   0.389623  -0.027703   0.001486   0.000048
    18  H    0.000075   0.001415  -0.027026   0.382189  -0.026454   0.001725
    19  H    0.001920  -0.000033   0.001426  -0.032550   0.387512  -0.034651
              13         14         15         16         17         18
     1  N    0.000000   0.000000   0.000059   0.000064   0.000000   0.000000
     2  C    0.000000  -0.000007  -0.003749  -0.003847  -0.000001   0.000000
     3  C    0.000000   0.000017   0.387068   0.001410  -0.004048  -0.000016
     4  C   -0.000001   0.001013  -0.026876  -0.025666   0.000019   0.000000
     5  C   -0.000207  -0.033223   0.001439   0.389694  -0.000001   0.000000
     6  C   -0.010797   0.426757   0.000023  -0.024831  -0.000022   0.000002
     7  C   -0.000061  -0.029415   0.001411   0.001349   0.001346   0.000075
     8  C   -0.000003   0.001076  -0.024908   0.000029  -0.025914   0.001415
     9  C    0.000000  -0.000006  -0.003865   0.000001   0.389623  -0.027026
    10  C    0.000000   0.000001   0.000019   0.000000  -0.027703   0.382189
    11  C    0.000001   0.000004  -0.000002   0.000000   0.001486  -0.026454
    12  C   -0.000434   0.000729  -0.000029  -0.000022   0.000048   0.001725
    13  N    6.579716   0.686104   0.000000   0.000063   0.000000   0.000000
    14  C    0.686104   4.876333   0.000001  -0.003906   0.000000   0.000000
    15  H    0.000000   0.000001   0.609621  -0.000039   0.000975  -0.000003
    16  H    0.000063  -0.003906  -0.000039   0.598221   0.000000   0.000000
    17  H    0.000000   0.000000   0.000975   0.000000   0.630670  -0.004041
    18  H    0.000000   0.000000  -0.000003   0.000000  -0.004041   0.638244
    19  H    0.000000  -0.000004   0.000000   0.000000  -0.000042  -0.003089
              19
     1  N    0.000000
     2  C    0.000000
     3  C    0.000002
     4  C    0.000000
     5  C    0.000000
     6  C   -0.000005
     7  C    0.001920
     8  C   -0.000033
     9  C    0.001426
    10  C   -0.032550
    11  C    0.387512
    12  C   -0.034651
    13  N    0.000000
    14  C   -0.000004
    15  H    0.000000
    16  H    0.000000
    17  H   -0.000042
    18  H   -0.003089
    19  H    0.651997
 Mulliken charges:
               1
     1  N   -0.255440
     2  C    0.057458
     3  C   -0.083229
     4  C   -0.042337
     5  C   -0.083258
     6  C   -0.021811
     7  C   -0.040460
     8  C   -0.021593
     9  C   -0.122054
    10  C   -0.099558
    11  C   -0.143920
    12  C   -0.192382
    13  N   -0.254381
    14  C    0.074528
    15  H    0.058856
    16  H    0.067482
    17  H    0.037602
    18  H    0.036979
    19  H    0.027518
 Sum of Mulliken charges =  -1.00000
 Mulliken charges with hydrogens summed into heavy atoms:
               1
     1  N   -0.255440
     2  C    0.057458
     3  C   -0.024373
     4  C   -0.042337
     5  C   -0.015776
     6  C   -0.021811
     7  C   -0.040460
     8  C   -0.021593
     9  C   -0.084451
    10  C   -0.062578
    11  C   -0.116402
    12  C   -0.192382
    13  N   -0.254381
    14  C    0.074528
 Electronic spatial extent (au):  <R**2>=           2710.5590
 Charge=             -1.0000 electrons
 Dipole moment (field-independent basis, Debye):
    X=              1.3480    Y=             -3.3744    Z=              0.2235  Tot=              3.6405
 Quadrupole moment (field-independent basis, Debye-Ang):
   XX=           -114.3120   YY=            -97.0339   ZZ=            -74.0517
   XY=             10.9400   XZ=             -0.3847   YZ=              0.2197
 Traceless Quadrupole moment (field-independent basis, Debye-Ang):
   XX=            -19.1795   YY=             -1.9013   ZZ=             21.0808
   XY=             10.9400   XZ=             -0.3847   YZ=              0.2197
 Octapole moment (field-independent basis, Debye-Ang**2):
  XXX=            -86.7157  YYY=            -83.4933  ZZZ=              0.1361  XYY=             23.6163
  XXY=             25.8890  XXZ=              0.9367  XZZ=              4.3048  YZZ=              3.5836
  YYZ=              0.3289  XYZ=             -0.5557
 Hexadecapole moment (field-independent basis, Debye-Ang**3):
 XXXX=          -2858.3694 YYYY=          -1637.7170 ZZZZ=            -58.2414 XXXY=            154.3905
 XXXZ=             -3.0640 YYYX=             58.7617 YYYZ=              0.2652 ZZZX=             -0.2366
 ZZZY=              0.1300 XXYY=           -612.5023 XXZZ=           -366.6060 YYZZ=           -223.8228
 XXYZ=              1.5386 YYXZ=             -0.4213 ZZXY=             -7.1801
 N-N= 7.081216241180D+02 E-N=-2.738529370471D+03  KE= 5.552963414782D+02
 Calling FoFJK, ICntrl=      2127 FMM=F ISym2X=0 I1Cent= 0 IOpClX= 0 NMat=1 NMatS=1 NMatT=0.
 ***** Axes restored to original set *****
 -------------------------------------------------------------------
 Center     Atomic                   Forces (Hartrees/Bohr)
 Number     Number              X              Y              Z
 -------------------------------------------------------------------
      1        7          -0.107213470   -0.003490612   -0.000068105
      2        6           0.086829279    0.002998732   -0.000010927
      3        6          -0.016181282   -0.012314019    0.001750374
      4        6          -0.004402899   -0.015794725    0.001717233
      5        6           0.010183707    0.028445914   -0.001599164
      6        6          -0.036075624    0.018019836   -0.000637359
      7        6           0.037980571   -0.025200553   -0.004946397
      8        6          -0.024032478   -0.017863221    0.012555149
      9        6           0.019835329   -0.025019192    0.001417153
     10        6          -0.010443010   -0.021256148   -0.009257572
     11        6          -0.017355308    0.019174387   -0.010682171
     12        6           0.046540645    0.059018010    0.008939408
     13        7           0.044074087    0.097124903    0.001563885
     14        6          -0.030777653   -0.080571531   -0.003585219
     15        1          -0.004024005   -0.005558143   -0.005188125
     16        1          -0.003614954    0.004274991   -0.000554687
     17        1          -0.006885814   -0.003688954    0.001231456
     18        1           0.001786212   -0.013434160    0.002442868
     19        1           0.013776666   -0.004865515    0.004912202
 -------------------------------------------------------------------
 Cartesian Forces:  Max     0.107213470 RMS     0.030506684

 GradGradGradGradGradGradGradGradGradGradGradGradGradGradGradGradGradGrad
 Berny optimization.
 FormGI is forming the generalized inverse of G from B-inverse, IUseBI=4.
 GSVD:  received Info=                   1 from GESDD.
 Internal  Forces:  Max     0.107268413 RMS     0.020795570
 Search for a local minimum.
 Step number   1 out of a maximum of  102
 All quantities printed in internal units (Hartrees-Bohrs-Radians)
 Mixed Optimization -- RFO/linear search
 Second derivative matrix not updated -- first step.
 ITU=  0
     Eigenvalues ---    0.01619   0.01619   0.01956   0.01968   0.01971
     Eigenvalues ---    0.02019   0.02027   0.02034   0.02050   0.02083
     Eigenvalues ---    0.02092   0.02094   0.02109   0.02166   0.02186
     Eigenvalues ---    0.02225   0.04861   0.04861   0.16000   0.16000
     Eigenvalues ---    0.16000   0.16000   0.16000   0.22084   0.23230
     Eigenvalues ---    0.23489   0.23688   0.24906   0.25000   0.25000
     Eigenvalues ---    0.25000   0.34755   0.34771   0.34945   0.35097
     Eigenvalues ---    0.35245   0.38478   0.40073   0.40206   0.40986
     Eigenvalues ---    0.41921   0.43263   0.44258   0.44928   0.44987
     Eigenvalues ---    0.45527   0.45782   0.46195   0.47116   1.27543
     Eigenvalues ---    1.28137
 RFO step:  Lambda=-5.84117508D-02 EMin= 1.61890701D-02
 Linear search not attempted -- first point.
 Maximum step size (   0.300) exceeded in Quadratic search.
    -- Step size scaled by   0.896
 Iteration  1 RMS(Cart)=  0.05089860 RMS(Int)=  0.00130171
 Iteration  2 RMS(Cart)=  0.00200851 RMS(Int)=  0.00048632
 Iteration  3 RMS(Cart)=  0.00000159 RMS(Int)=  0.00048632
 Iteration  4 RMS(Cart)=  0.00000000 RMS(Int)=  0.00048632
 Variable       Old X    -DE/DX   Delta X   Delta X   Delta X     New X
                                 (Linear)    (Quad)   (Total)
    R1        2.19109   0.10727   0.00000   0.07172   0.07172   2.26281
    R2        2.71274   0.02039   0.00000   0.03966   0.03966   2.75240
    R3        2.64658   0.01739   0.00000   0.02900   0.02885   2.67544
    R4        2.65991   0.02838   0.00000   0.05114   0.05114   2.71105
    R5        2.06049   0.00680   0.00000   0.01499   0.01499   2.07548
    R6        2.63975   0.03583   0.00000   0.05991   0.05975   2.69950
    R7        2.64873   0.01004   0.00000   0.01703   0.01702   2.66575
    R8        2.06075   0.00555   0.00000   0.01224   0.01224   2.07299
    R9        2.66195   0.04771   0.00000   0.08672   0.08687   2.74881
   R10        2.71454   0.02074   0.00000   0.04046   0.04046   2.75500
   R11        2.67353   0.05220   0.00000   0.09920   0.09921   2.77274
   R12        2.65295   0.03564   0.00000   0.06448   0.06468   2.71763
   R13        2.65990   0.02138   0.00000   0.03834   0.03798   2.69788
   R14        2.64213  -0.00033   0.00000  -0.00223  -0.00243   2.63971
   R15        2.05764   0.00634   0.00000   0.01393   0.01393   2.07156
   R16        2.62581   0.04425   0.00000   0.07259   0.07274   2.69855
   R17        2.05518   0.01228   0.00000   0.02687   0.02687   2.08204
   R18        2.62681   0.02024   0.00000   0.03389   0.03424   2.66105
   R19        2.05279   0.01346   0.00000   0.02936   0.02936   2.08215
   R20        2.19281   0.10662   0.00000   0.07161   0.07161   2.26441
    A1        2.10974  -0.00006   0.00000  -0.00088  -0.00115   2.10858
    A2        2.08281  -0.00092   0.00000  -0.00345  -0.00353   2.07928
    A3        2.09064   0.00098   0.00000   0.00435   0.00429   2.09492
    A4        2.10083  -0.00166   0.00000  -0.00248  -0.00237   2.09846
    A5        2.09223  -0.00138   0.00000  -0.00166  -0.00155   2.09068
    A6        2.09012   0.00304   0.00000   0.00413   0.00377   2.09390
    A7        2.09783   0.00239   0.00000   0.00397   0.00379   2.10163
    A8        2.09429  -0.00199   0.00000  -0.00524  -0.00516   2.08914
    A9        2.09106  -0.00040   0.00000   0.00127   0.00135   2.09240
   A10        2.10107   0.00654   0.00000   0.02105   0.02118   2.12225
   A11        2.07288  -0.00007   0.00000  -0.00122  -0.00129   2.07159
   A12        2.10924  -0.00647   0.00000  -0.01983  -0.01991   2.08933
   A13        2.08721  -0.01609   0.00000  -0.04351  -0.04318   2.04403
   A14        2.12353  -0.00695   0.00000  -0.02622  -0.02637   2.09716
   A15        2.07245   0.02304   0.00000   0.06973   0.06954   2.14199
   A16        2.08040   0.00418   0.00000   0.01523   0.01553   2.09593
   A17        2.12514   0.00091   0.00000  -0.00151  -0.00156   2.12358
   A18        2.07765  -0.00509   0.00000  -0.01374  -0.01464   2.06301
   A19        2.11110  -0.00634   0.00000  -0.02332  -0.02403   2.08707
   A20        2.10478  -0.00154   0.00000  -0.00764  -0.00731   2.09747
   A21        2.06731   0.00787   0.00000   0.03095   0.03128   2.09859
   A22        2.09398   0.00620   0.00000   0.01293   0.01261   2.10659
   A23        2.09815  -0.00901   0.00000  -0.03069  -0.03083   2.06732
   A24        2.09106   0.00281   0.00000   0.01776   0.01755   2.10861
   A25        2.08612   0.02329   0.00000   0.07056   0.07071   2.15683
   A26        2.11027  -0.01746   0.00000  -0.05915  -0.05968   2.05059
   A27        2.08680  -0.00582   0.00000  -0.01142  -0.01205   2.07475
   A28        2.12508  -0.04109   0.00000  -0.11618  -0.11523   2.00985
   A29        3.13271   0.00104   0.00000   0.01246   0.01246   3.14516
   A30        3.14920   0.00605   0.00000   0.05065   0.05065   3.19984
   A31        3.14303   0.00002   0.00000   0.00030   0.00030   3.14332
   A32        3.14198   0.00330   0.00000   0.02764   0.02764   3.16962
    D1       -3.14129  -0.00068   0.00000  -0.00762  -0.00769   3.13421
    D2        0.00107   0.00089   0.00000   0.01009   0.01011   0.01118
    D3       -0.00032   0.00202   0.00000   0.02304   0.02312   0.02280
    D4       -3.14115   0.00359   0.00000   0.04075   0.04092  -3.10023
    D5       -0.00092  -0.00083   0.00000  -0.00960  -0.00948  -0.01041
    D6        3.14119   0.00255   0.00000   0.02924   0.02997  -3.11203
    D7        3.14130  -0.00354   0.00000  -0.04038  -0.04056   3.10074
    D8        0.00022  -0.00016   0.00000  -0.00155  -0.00111  -0.00089
    D9       -3.14120   0.00106   0.00000   0.01203   0.01196  -3.12924
   D10        0.00020   0.00054   0.00000   0.00610   0.00618   0.00638
   D11       -0.00037  -0.00050   0.00000  -0.00559  -0.00576  -0.00613
   D12        3.14103  -0.00102   0.00000  -0.01152  -0.01154   3.12949
   D13       -0.00047   0.00007   0.00000   0.00074   0.00081   0.00034
   D14        3.14136  -0.00059   0.00000  -0.00677  -0.00652   3.13484
   D15        3.14132   0.00059   0.00000   0.00666   0.00660  -3.13527
   D16       -0.00004  -0.00007   0.00000  -0.00085  -0.00073  -0.00077
   D17        0.00061  -0.00003   0.00000  -0.00031  -0.00018   0.00043
   D18       -3.14121  -0.00032   0.00000  -0.00380  -0.00301   3.13896
   D19       -3.14122   0.00064   0.00000   0.00737   0.00722  -3.13400
   D20        0.00014   0.00035   0.00000   0.00388   0.00439   0.00453
   D21        0.00008   0.00040   0.00000   0.00466   0.00443   0.00451
   D22        3.14117  -0.00289   0.00000  -0.03311  -0.03366   3.10750
   D23       -3.14129   0.00069   0.00000   0.00806   0.00735  -3.13393
   D24       -0.00020  -0.00260   0.00000  -0.02970  -0.03074  -0.03094
   D25       -3.14099   0.00455   0.00000   0.05175   0.05059  -3.09039
   D26        0.00038   0.00426   0.00000   0.04827   0.04758   0.04796
   D27        3.14099  -0.00404   0.00000  -0.04587  -0.04699   3.09401
   D28        0.00000  -0.00309   0.00000  -0.03523  -0.03549  -0.03550
   D29       -0.00008  -0.00066   0.00000  -0.00710  -0.00826  -0.00834
   D30       -3.14108   0.00029   0.00000   0.00354   0.00323  -3.13785
   D31        0.00020   0.00240   0.00000   0.02704   0.02725   0.02745
   D32       -3.14139  -0.00117   0.00000  -0.01305  -0.01166   3.13013
   D33        3.14121   0.00147   0.00000   0.01661   0.01574  -3.12624
   D34       -0.00038  -0.00210   0.00000  -0.02348  -0.02318  -0.02356
   D35       -0.00003  -0.00080   0.00000  -0.00922  -0.00835  -0.00837
   D36        3.14137  -0.00522   0.00000  -0.05838  -0.05744   3.08394
   D37        3.14156   0.00275   0.00000   0.03070   0.03149  -3.11013
   D38       -0.00022  -0.00167   0.00000  -0.01845  -0.01760  -0.01782
   D39       -0.00026  -0.00256   0.00000  -0.02885  -0.02835  -0.02862
   D40        3.14152   0.00180   0.00000   0.01964   0.02138  -3.12028
         Item               Value     Threshold  Converged?
 Maximum Force            0.107268     0.000450     NO 
 RMS     Force            0.020796     0.000300     NO 
 Maximum Displacement     0.197977     0.001800     NO 
 RMS     Displacement     0.050236     0.001200     NO 
 Predicted change in Energy=-3.219628D-02
 GradGradGradGradGradGradGradGradGradGradGradGradGradGradGradGradGradGrad

                          Input orientation:                          
 ---------------------------------------------------------------------
 Center     Atomic      Atomic             Coordinates (Angstroms)
 Number     Number       Type             X           Y           Z
 ---------------------------------------------------------------------
      1          7           0        1.087679   -0.071284    0.041278
      2          6           0        2.284158   -0.027452    0.060087
      3          6           0        4.492513   -1.178370    0.091779
      4          6           0        3.739719    0.020637    0.081025
      5          6           0        4.408319    1.282957    0.067744
      6          6           0        5.817612    1.344731    0.072699
      7          6           0        6.633180    0.140403    0.090870
      8          6           0        5.926718   -1.145534    0.103309
      9          6           0        6.704151   -2.342690    0.078340
     10          6           0        8.097783   -2.259042    0.033069
     11          6           0        8.752742   -0.990148    0.045228
     12          6           0        8.067880    0.239362    0.092194
     13          7           0        6.926283    3.756955    0.062389
     14          6           0        6.460991    2.652772    0.050095
     15          1           0        3.964981   -2.141228    0.062261
     16          1           0        3.820671    2.209043    0.047915
     17          1           0        6.209659   -3.321036    0.083158
     18          1           0        8.679763   -3.194530    0.025494
     19          1           0        9.854399   -0.986595    0.064116
 ---------------------------------------------------------------------
                    Distance matrix (angstroms):
                    1          2          3          4          5
     1  N    0.000000
     2  C    1.197429   0.000000
     3  C    3.580654   2.490472   0.000000
     4  C    2.653930   1.456506   1.415780   0.000000
     5  C    3.586268   2.495855   2.462884   1.428515   0.000000
     6  C    4.937443   3.790560   2.849963   2.463926   1.410655
     7  C    5.549761   4.352369   2.514283   2.895955   2.501194
     8  C    4.957233   3.810541   1.434627   2.478592   2.864328
     9  C    6.058499   4.989689   2.499433   3.791198   4.291419
    10  C    7.343562   6.227276   3.764209   4.918532   5.114597
    11  C    7.719943   6.539847   4.264639   5.114037   4.903216
    12  C    6.987295   5.789962   3.846194   4.333698   3.805532
    13  N    6.981773   5.989246   5.502866   4.910662   3.529991
    14  C    6.024370   4.962825   4.307470   3.786081   2.467826
    15  H    3.544570   2.700597   1.098297   2.173651   3.452770
    16  H    3.559379   2.713472   3.453674   2.190152   1.096976
    17  H    6.066079   5.124235   2.745848   4.155405   4.943867
    18  H    8.209424   7.136900   4.647833   5.894440   6.188288
    19  H    8.814402   7.630761   5.365385   6.197105   5.900056
                    6          7          8          9         10
     6  C    0.000000
     7  C    1.454608   0.000000
     8  C    2.492842   1.467269   0.000000
     9  C    3.792500   2.484139   1.427658   0.000000
    10  C    4.264731   2.811715   2.440974   1.396874   0.000000
    11  C    3.750654   2.402660   2.830889   2.455035   1.428010
    12  C    2.507174   1.438109   2.550026   2.920093   2.499283
    13  N    2.654823   3.628521   5.003519   6.103709   6.129069
    14  C    1.457882   2.518593   3.836068   5.001457   5.177384
    15  H    3.947690   3.510832   2.200341   2.746615   4.134583
    16  H    2.176102   3.491607   3.961274   5.388289   6.185280
    17  H    4.682221   3.487261   2.193916   1.096224   2.166876
    18  H    5.366472   3.913382   3.432738   2.152084   1.101770
    19  H    4.661631   3.412784   3.931090   3.429761   2.169282
                   11         12         13         14         15
    11  C    0.000000
    12  C    1.408168   0.000000
    13  N    5.086377   3.698323   0.000000
    14  C    4.303838   2.899726   1.198276   0.000000
    15  H    4.924219   4.743615   6.599838   5.404873   0.000000
    16  H    5.878788   4.681920   3.470023   2.677347   4.352688
    17  H    3.449892   4.016155   7.114207   5.979185   2.535934
    18  H    2.205678   3.488620   7.169323   6.254159   4.831145
    19  H    1.101824   2.166889   5.574507   4.975983   6.001535
                   16         17         18         19
    16  H    0.000000
    17  H    6.024141   0.000000
    18  H    7.267040   2.474013   0.000000
    19  H    6.827754   4.328292   2.501248   0.000000
 Stoichiometry    C12H5N2(1-)
 Framework group  C1[X(C12H5N2)]
 Deg. of freedom    51
 Full point group                 C1      NOp   1
 Largest Abelian subgroup         C1      NOp   1
 Largest concise Abelian subgroup C1      NOp   1
                         Standard orientation:                         
 ---------------------------------------------------------------------
 Center     Atomic      Atomic             Coordinates (Angstroms)
 Number     Number       Type             X           Y           Z
 ---------------------------------------------------------------------
      1          7           0        4.494719   -0.953190    0.025711
      2          6           0        3.325928   -0.693535    0.007212
      3          6           0        0.945721   -1.425758   -0.022988
      4          6           0        1.903103   -0.382801   -0.013346
      5          6           0        1.474028    0.979694   -0.000816
      6          6           0        0.099190    1.295522   -0.005413
      7          6           0       -0.920895    0.258689   -0.022452
      8          6           0       -0.458858   -1.133885   -0.034133
      9          6           0       -1.440122   -2.170538   -0.008046
     10          6           0       -2.795577   -1.835997    0.037562
     11          6           0       -3.210058   -0.469523    0.024643
     12          6           0       -2.313988    0.615690   -0.023438
     13          7           0       -0.554559    3.868578    0.003412
     14          6           0       -0.296801    2.698424    0.016398
     15          1           0        1.290277   -2.468175    0.007097
     16          1           0        2.219596    1.784134    0.018153
     17          1           0       -1.130877   -3.222230   -0.012275
     18          1           0       -3.537262   -2.650692    0.046002
     19          1           0       -4.292883   -0.266644    0.006067
 ---------------------------------------------------------------------
 Rotational constants (GHZ):      0.9722996      0.5874033      0.3662205
 Standard basis: STO-3G (5D, 7F)
 There are    75 symmetry adapted cartesian basis functions of A   symmetry.
 There are    75 symmetry adapted basis functions of A   symmetry.
    75 basis functions,   225 primitive gaussians,    75 cartesian basis functions
    46 alpha electrons       46 beta electrons
       nuclear repulsion energy       695.5560173271 Hartrees.
 NAtoms=   19 NActive=   19 NUniq=   19 SFac= 1.00D+00 NAtFMM=   60 NAOKFM=F Big=F
 Integral buffers will be    131072 words long.
 Raffenetti 2 integral format.
 Two-electron integral symmetry is turned on.
 One-electron integrals computed using PRISM.
 NBasis=    75 RedAO= T EigKep=  1.74D-01  NBF=    75
 NBsUse=    75 1.00D-06 EigRej= -1.00D+00 NBFU=    75
 Initial guess from the checkpoint file:  "/tmp/bnp.472629.sequoia/Gau-9970.chk"
 B after Tr=     0.000000    0.000000    0.000000
         Rot=    0.999998   -0.000011   -0.000033   -0.001757 Ang=  -0.20 deg.
 ExpMin= 1.69D-01 ExpMax= 9.91D+01 ExpMxC= 9.91D+01 IAcc=1 IRadAn=         1 AccDes= 0.00D+00
 Harris functional with IExCor=  402 and IRadAn=       1 diagonalized for initial guess.
 HarFok:  IExCor=  402 AccDes= 0.00D+00 IRadAn=         1 IDoV= 1 UseB2=F ITyADJ=14
 ICtDFT=  3500011 ScaDFX=  1.000000  1.000000  1.000000  1.000000
 FoFCou: FMM=F IPFlag=           0 FMFlag=      100000 FMFlg1=           0
         NFxFlg=           0 DoJE=T BraDBF=F KetDBF=T FulRan=T
         wScrn=  0.000000 ICntrl=     500 IOpCl=  0 I1Cent=   200000004 NGrid=           0
         NMat0=    1 NMatS0=      1 NMatT0=    0 NMatD0=    1 NMtDS0=    0 NMtDT0=    0
 Petite list used in FoFCou.
 Keep R1 ints in memory in canonical form, NReq=4993994.
 Requested convergence on RMS density matrix=1.00D-08 within 128 cycles.
 Requested convergence on MAX density matrix=1.00D-06.
 Requested convergence on             energy=1.00D-06.
 No special actions if energy rises.
 Integral accuracy reduced to 1.0D-05 until final iterations.
 Initial convergence to 1.0D-05 achieved.  Increase integral accuracy.
 SCF Done:  E(RB3LYP) =  -562.502616481     A.U. after   19 cycles
            NFock= 19  Conv=0.57D-08     -V/T= 2.0141
 Calling FoFJK, ICntrl=      2127 FMM=F ISym2X=0 I1Cent= 0 IOpClX= 0 NMat=1 NMatS=1 NMatT=0.
 ***** Axes restored to original set *****
 -------------------------------------------------------------------
 Center     Atomic                   Forces (Hartrees/Bohr)
 Number     Number              X              Y              Z
 -------------------------------------------------------------------
      1        7          -0.006673947   -0.000200584   -0.000099134
      2        6           0.004225311    0.000117912    0.000168494
      3        6           0.000610119    0.004728704    0.001195781
      4        6           0.002174104   -0.007870319    0.000426118
      5        6           0.008774265    0.007869287   -0.000728653
      6        6          -0.016410998   -0.006516437   -0.000691002
      7        6           0.003914250   -0.016736065   -0.003103169
      8        6          -0.014305086    0.003092751    0.005411635
      9        6           0.008712886   -0.005921382   -0.000305556
     10        6           0.000019405   -0.002804819   -0.003731688
     11        6          -0.012644622   -0.002071396   -0.002522514
     12        6           0.018316467    0.027664007    0.003810079
     13        7           0.001646755    0.005820421    0.000075423
     14        6           0.003203473   -0.001949627   -0.000384953
     15        1          -0.000382502   -0.001007686   -0.002172514
     16        1          -0.001136208   -0.000019292   -0.000179429
     17        1          -0.002276106    0.000405323    0.001074302
     18        1           0.000201342   -0.000804652    0.000158425
     19        1           0.002031090   -0.003796147    0.001598354
 -------------------------------------------------------------------
 Cartesian Forces:  Max     0.027664007 RMS     0.006829715

 GradGradGradGradGradGradGradGradGradGradGradGradGradGradGradGradGradGrad
 Berny optimization.
 Using GEDIIS/GDIIS optimizer.
 FormGI is forming the generalized inverse of G from B-inverse, IUseBI=4.
 Internal  Forces:  Max     0.020094889 RMS     0.004007281
 Search for a local minimum.
 Step number   2 out of a maximum of  102
 All quantities printed in internal units (Hartrees-Bohrs-Radians)
 Mixed Optimization -- RFO/linear search
 Update second derivatives using D2CorX and points    1    2
 DE= -3.05D-02 DEPred=-3.22D-02 R= 9.47D-01
 TightC=F SS=  1.41D+00  RLast= 3.37D-01 DXNew= 5.0454D-01 1.0101D+00
 Trust test= 9.47D-01 RLast= 3.37D-01 DXMaxT set to 5.05D-01
 ITU=  1  0
 Use linear search instead of GDIIS.
     Eigenvalues ---    0.01619   0.01620   0.01956   0.01968   0.01984
     Eigenvalues ---    0.02021   0.02029   0.02046   0.02051   0.02091
     Eigenvalues ---    0.02094   0.02103   0.02110   0.02179   0.02196
     Eigenvalues ---    0.02251   0.04861   0.04895   0.15834   0.15993
     Eigenvalues ---    0.15995   0.15999   0.16050   0.21128   0.22200
     Eigenvalues ---    0.23476   0.23578   0.24098   0.24987   0.24996
     Eigenvalues ---    0.25005   0.34759   0.34776   0.34953   0.35139
     Eigenvalues ---    0.35284   0.38671   0.39903   0.40258   0.41000
     Eigenvalues ---    0.41983   0.43263   0.43999   0.44828   0.45188
     Eigenvalues ---    0.45619   0.45852   0.46945   0.50749   1.27836
     Eigenvalues ---    1.34764
 RFO step:  Lambda=-5.48775491D-03 EMin= 1.61890698D-02
 Quartic linear search produced a step of  0.26606.
 Iteration  1 RMS(Cart)=  0.03797292 RMS(Int)=  0.00150451
 Iteration  2 RMS(Cart)=  0.00232954 RMS(Int)=  0.00067331
 Iteration  3 RMS(Cart)=  0.00000289 RMS(Int)=  0.00067330
 Iteration  4 RMS(Cart)=  0.00000000 RMS(Int)=  0.00067330
 Variable       Old X    -DE/DX   Delta X   Delta X   Delta X     New X
                                 (Linear)    (Quad)   (Total)
    R1        2.26281   0.00668   0.01908  -0.01174   0.00734   2.27015
    R2        2.75240   0.00245   0.01055  -0.00282   0.00773   2.76013
    R3        2.67544  -0.00387   0.00768  -0.01861  -0.01093   2.66451
    R4        2.71105  -0.00166   0.01361  -0.01808  -0.00441   2.70665
    R5        2.07548   0.00112   0.00399   0.00006   0.00405   2.07953
    R6        2.69950   0.00459   0.01590  -0.00361   0.01223   2.71173
    R7        2.66575  -0.00607   0.00453  -0.02105  -0.01659   2.64916
    R8        2.07299   0.00060   0.00326  -0.00110   0.00216   2.07514
    R9        2.74881   0.00394   0.02311  -0.01107   0.01203   2.76085
   R10        2.75500   0.00562   0.01076   0.00684   0.01760   2.77260
   R11        2.77274   0.00411   0.02640  -0.01259   0.01377   2.78651
   R12        2.71763   0.01251   0.01721   0.01884   0.03624   2.75387
   R13        2.69788   0.00364   0.01011   0.00018   0.01003   2.70791
   R14        2.63971  -0.00330  -0.00065  -0.00940  -0.01019   2.62952
   R15        2.07156   0.00067   0.00370  -0.00128   0.00242   2.07398
   R16        2.69855   0.00421   0.01935  -0.00883   0.01060   2.70914
   R17        2.08204   0.00079   0.00715  -0.00429   0.00286   2.08490
   R18        2.66105   0.00771   0.00911   0.01147   0.02081   2.68186
   R19        2.08215   0.00205   0.00781  -0.00053   0.00728   2.08942
   R20        2.26441   0.00600   0.01905  -0.01234   0.00671   2.27112
    A1        2.10858   0.00104  -0.00031   0.00541   0.00478   2.11337
    A2        2.07928  -0.00042  -0.00094  -0.00128  -0.00276   2.07652
    A3        2.09492  -0.00066   0.00114  -0.00531  -0.00466   2.09027
    A4        2.09846   0.00023  -0.00063   0.00220   0.00149   2.09996
    A5        2.09068   0.00008  -0.00041   0.00124   0.00075   2.09143
    A6        2.09390  -0.00032   0.00100  -0.00372  -0.00281   2.09109
    A7        2.10163  -0.00179   0.00101  -0.01114  -0.01022   2.09141
    A8        2.08914  -0.00010  -0.00137  -0.00115  -0.00249   2.08665
    A9        2.09240   0.00190   0.00036   0.01228   0.01267   2.10507
   A10        2.12225   0.00532   0.00564   0.02208   0.02769   2.14994
   A11        2.07159   0.00016  -0.00034   0.00035   0.00001   2.07160
   A12        2.08933  -0.00548  -0.00530  -0.02246  -0.02776   2.06157
   A13        2.04403  -0.00662  -0.01149  -0.02035  -0.03145   2.01258
   A14        2.09716  -0.00605  -0.00702  -0.02532  -0.03214   2.06502
   A15        2.14199   0.01267   0.01850   0.04570   0.06357   2.20557
   A16        2.09593   0.00236   0.00413   0.00763   0.01183   2.10776
   A17        2.12358   0.00062  -0.00042   0.00189   0.00086   2.12444
   A18        2.06301  -0.00303  -0.00390  -0.01147  -0.01697   2.04604
   A19        2.08707  -0.00213  -0.00639  -0.00888  -0.01627   2.07080
   A20        2.09747  -0.00126  -0.00194  -0.00798  -0.00945   2.08802
   A21        2.09859   0.00339   0.00832   0.01676   0.02549   2.12408
   A22        2.10659   0.00181   0.00336   0.00088   0.00342   2.11001
   A23        2.06732  -0.00120  -0.00820   0.00337  -0.00512   2.06220
   A24        2.10861  -0.00065   0.00467  -0.00583  -0.00153   2.10708
   A25        2.15683   0.01069   0.01881   0.03722   0.05574   2.21257
   A26        2.05059  -0.00931  -0.01588  -0.04267  -0.05875   1.99184
   A27        2.07475  -0.00142  -0.00321   0.00432   0.00071   2.07546
   A28        2.00985  -0.02009  -0.03066  -0.06666  -0.09690   1.91296
   A29        3.14516  -0.00011   0.00331  -0.01213  -0.00882   3.13634
   A30        3.19984   0.00167   0.01348   0.02219   0.03567   3.23551
   A31        3.14332  -0.00001   0.00008  -0.00086  -0.00078   3.14254
   A32        3.16962   0.00004   0.00735  -0.00818  -0.00083   3.16879
    D1        3.13421  -0.00023  -0.00205  -0.00706  -0.00920   3.12501
    D2        0.01118   0.00030   0.00269   0.01003   0.01278   0.02396
    D3        0.02280   0.00100   0.00615   0.03806   0.04438   0.06718
    D4       -3.10023   0.00152   0.01089   0.05515   0.06636  -3.03387
    D5       -0.01041  -0.00024  -0.00252  -0.00907  -0.01145  -0.02186
    D6       -3.11203   0.00136   0.00797   0.04945   0.05830  -3.05373
    D7        3.10074  -0.00147  -0.01079  -0.05452  -0.06542   3.03532
    D8       -0.00089   0.00013  -0.00030   0.00400   0.00433   0.00345
    D9       -3.12924   0.00030   0.00318   0.01020   0.01335  -3.11589
   D10        0.00638   0.00021   0.00164   0.00687   0.00863   0.01501
   D11       -0.00613  -0.00022  -0.00153  -0.00681  -0.00851  -0.01464
   D12        3.12949  -0.00031  -0.00307  -0.01014  -0.01323   3.11626
   D13        0.00034   0.00008   0.00022   0.00267   0.00294   0.00328
   D14        3.13484  -0.00006  -0.00174  -0.00243  -0.00391   3.13093
   D15       -3.13527   0.00018   0.00176   0.00605   0.00776  -3.12751
   D16       -0.00077   0.00004  -0.00019   0.00095   0.00091   0.00014
   D17        0.00043  -0.00001  -0.00005  -0.00159  -0.00140  -0.00097
   D18        3.13896   0.00029  -0.00080   0.00852   0.00853  -3.13570
   D19       -3.13400   0.00010   0.00192   0.00346   0.00530  -3.12870
   D20        0.00453   0.00040   0.00117   0.01357   0.01523   0.01976
   D21        0.00451   0.00009   0.00118   0.00468   0.00547   0.00998
   D22        3.10750  -0.00138  -0.00896  -0.05155  -0.06087   3.04663
   D23       -3.13393  -0.00019   0.00196  -0.00557  -0.00518  -3.13912
   D24       -0.03094  -0.00166  -0.00818  -0.06180  -0.07153  -0.10247
   D25       -3.09039   0.00148   0.01346   0.06018   0.07204  -3.01835
   D26        0.04796   0.00176   0.01266   0.07075   0.08299   0.13095
   D27        3.09401  -0.00181  -0.01250  -0.05945  -0.07366   3.02035
   D28       -0.03550  -0.00136  -0.00944  -0.05002  -0.06016  -0.09566
   D29       -0.00834  -0.00036  -0.00220  -0.00241  -0.00688  -0.01523
   D30       -3.13785   0.00010   0.00086   0.00702   0.00661  -3.13123
   D31        0.02745   0.00135   0.00725   0.04969   0.05668   0.08413
   D32        3.13013   0.00015  -0.00310   0.00356   0.00153   3.13166
   D33       -3.12624   0.00087   0.00419   0.04009   0.04264  -3.08360
   D34       -0.02356  -0.00034  -0.00617  -0.00605  -0.01251  -0.03607
   D35       -0.00837  -0.00070  -0.00222  -0.03800  -0.03916  -0.04753
   D36        3.08394  -0.00171  -0.01528  -0.06541  -0.07909   3.00485
   D37       -3.11013   0.00054   0.00838   0.00902   0.01749  -3.09264
   D38       -0.01782  -0.00047  -0.00468  -0.01839  -0.02244  -0.04026
   D39       -0.02862  -0.00056  -0.00754  -0.02107  -0.02738  -0.05599
   D40       -3.12028   0.00066   0.00569   0.00792   0.01573  -3.10456
         Item               Value     Threshold  Converged?
 Maximum Force            0.020095     0.000450     NO 
 RMS     Force            0.004007     0.000300     NO 
 Maximum Displacement     0.172548     0.001800     NO 
 RMS     Displacement     0.038615     0.001200     NO 
 Predicted change in Energy=-3.556687D-03
 GradGradGradGradGradGradGradGradGradGradGradGradGradGradGradGradGradGrad

                          Input orientation:                          
 ---------------------------------------------------------------------
 Center     Atomic      Atomic             Coordinates (Angstroms)
 Number     Number       Type             X           Y           Z
 ---------------------------------------------------------------------
      1          7           0        1.082109   -0.067807    0.004538
      2          6           0        2.282152   -0.034277    0.048398
      3          6           0        4.492004   -1.178785    0.134093
      4          6           0        3.741026    0.014102    0.100294
      5          6           0        4.414877    1.280582    0.066528
      6          6           0        5.815903    1.325731    0.085115
      7          6           0        6.653872    0.129965    0.134170
      8          6           0        5.923696   -1.150749    0.164785
      9          6           0        6.702510   -2.351407    0.092311
     10          6           0        8.085257   -2.243869   -0.020261
     11          6           0        8.731480   -0.965565    0.039683
     12          6           0        8.100971    0.300430    0.157090
     13          7           0        6.920030    3.751516    0.025877
     14          6           0        6.479284    2.633472    0.036049
     15          1           0        3.966028   -2.142244    0.056220
     16          1           0        3.826194    2.206203    0.016093
     17          1           0        6.198771   -3.326429    0.102106
     18          1           0        8.677737   -3.173454   -0.065815
     19          1           0        9.835300   -1.018467    0.075777
 ---------------------------------------------------------------------
                    Distance matrix (angstroms):
                    1          2          3          4          5
     1  N    0.000000
     2  C    1.201313   0.000000
     3  C    3.588655   2.490117   0.000000
     4  C    2.661901   1.460597   1.409997   0.000000
     5  C    3.595739   2.505534   2.461504   1.434987   0.000000
     6  C    4.935307   3.786603   2.833321   2.454734   1.401877
     7  C    5.576779   4.375644   2.527152   2.915346   2.518252
     8  C    4.963810   3.810629   1.432295   2.474891   2.863138
     9  C    6.067244   4.991050   2.502624   3.790262   4.292467
    10  C    7.333482   6.209914   3.750960   4.897481   5.089301
    11  C    7.701953   6.516226   4.245884   5.086065   4.866103
    12  C    7.030171   5.829451   3.900417   4.369707   3.815258
    13  N    6.976317   5.986873   5.496807   4.907124   3.518943
    14  C    6.035512   4.973224   4.300255   3.789892   2.468403
    15  H    3.552879   2.697966   1.100440   2.168501   3.452146
    16  H    3.563882   2.721187   3.451865   2.195370   1.098119
    17  H    6.066990   5.116742   2.743438   4.147248   4.940455
    18  H    8.206313   7.125376   4.641016   5.878710   6.166679
    19  H    8.804952   7.617047   5.346018   6.181179   5.887843
                    6          7          8          9         10
     6  C    0.000000
     7  C    1.460977   0.000000
     8  C    2.480105   1.474559   0.000000
     9  C    3.782521   2.482202   1.432963   0.000000
    10  C    4.231208   2.776293   2.429301   1.391483   0.000000
    11  C    3.708462   2.350653   2.816664   2.457650   1.433618
    12  C    2.505586   1.457286   2.616583   2.998688   2.550521
    13  N    2.665903   3.632933   5.004416   6.107160   6.107744
    14  C    1.467197   2.511504   3.826954   4.990191   5.135248
    15  H    3.930614   3.520442   2.197115   2.744702   4.121193
    16  H    2.176910   3.510052   3.961155   5.389880   6.159877
    17  H    4.667919   3.486374   2.193895   1.097505   2.178472
    18  H    5.334374   3.879253   3.424800   2.145294   1.103284
    19  H    4.653053   3.382867   3.914852   3.404610   2.138570
                   11         12         13         14         15
    11  C    0.000000
    12  C    1.419179   0.000000
    13  N    5.052959   3.649909   0.000000
    14  C    4.245640   2.843871   1.201825   0.000000
    15  H    4.908603   4.803602   6.592682   5.396696   0.000000
    16  H    5.841446   4.682475   3.458310   2.687349   4.350880
    17  H    3.462974   4.095790   7.115007   5.966864   2.527754
    18  H    2.211062   3.528486   7.145149   6.209988   4.824779
    19  H    1.105676   2.180366   5.590530   4.959946   5.975919
                   16         17         18         19
    16  H    0.000000
    17  H    6.020509   0.000000
    18  H    7.244646   2.489352   0.000000
    19  H    6.819927   4.307171   2.450300   0.000000
 Stoichiometry    C12H5N2(1-)
 Framework group  C1[X(C12H5N2)]
 Deg. of freedom    51
 Full point group                 C1      NOp   1
 Largest Abelian subgroup         C1      NOp   1
 Largest concise Abelian subgroup C1      NOp   1
                         Standard orientation:                         
 ---------------------------------------------------------------------
 Center     Atomic      Atomic             Coordinates (Angstroms)
 Number     Number       Type             X           Y           Z
 ---------------------------------------------------------------------
      1          7           0        4.513325   -0.896855    0.059141
      2          6           0        3.336088   -0.661174    0.017658
      3          6           0        0.964392   -1.416085   -0.058824
      4          6           0        1.906232   -0.367146   -0.031376
      5          6           0        1.456173    0.995105   -0.001273
      6          6           0        0.082877    1.276293   -0.017108
      7          6           0       -0.945230    0.239161   -0.059618
      8          6           0       -0.442053   -1.146626   -0.086631
      9          6           0       -1.412351   -2.198138   -0.007718
     10          6           0       -2.756729   -1.858077    0.107317
     11          6           0       -3.177816   -0.489178    0.043606
     12          6           0       -2.342773    0.651632   -0.080191
     13          7           0       -0.595301    3.853971    0.034724
     14          6           0       -0.349848    2.677496    0.028108
     15          1           0        1.320212   -2.454285    0.021807
     16          1           0        2.192936    1.808109    0.044221
     17          1           0       -1.080642   -3.244292   -0.014661
     18          1           0       -3.497641   -2.674002    0.157835
     19          1           0       -4.274796   -0.354917    0.010036
 ---------------------------------------------------------------------
 Rotational constants (GHZ):      0.9749287      0.5874146      0.3668412
 Standard basis: STO-3G (5D, 7F)
 There are    75 symmetry adapted cartesian basis functions of A   symmetry.
 There are    75 symmetry adapted basis functions of A   symmetry.
    75 basis functions,   225 primitive gaussians,    75 cartesian basis functions
    46 alpha electrons       46 beta electrons
       nuclear repulsion energy       695.1087628163 Hartrees.
 NAtoms=   19 NActive=   19 NUniq=   19 SFac= 1.00D+00 NAtFMM=   60 NAOKFM=F Big=F
 Integral buffers will be    131072 words long.
 Raffenetti 2 integral format.
 Two-electron integral symmetry is turned on.
 One-electron integrals computed using PRISM.
 NBasis=    75 RedAO= T EigKep=  1.76D-01  NBF=    75
 NBsUse=    75 1.00D-06 EigRej= -1.00D+00 NBFU=    75
 Initial guess from the checkpoint file:  "/tmp/bnp.472629.sequoia/Gau-9970.chk"
 B after Tr=     0.000000    0.000000    0.000000
         Rot=    0.999984   -0.000017   -0.000054   -0.005623 Ang=  -0.64 deg.
 ExpMin= 1.69D-01 ExpMax= 9.91D+01 ExpMxC= 9.91D+01 IAcc=1 IRadAn=         1 AccDes= 0.00D+00
 Harris functional with IExCor=  402 and IRadAn=       1 diagonalized for initial guess.
 HarFok:  IExCor=  402 AccDes= 0.00D+00 IRadAn=         1 IDoV= 1 UseB2=F ITyADJ=14
 ICtDFT=  3500011 ScaDFX=  1.000000  1.000000  1.000000  1.000000
 FoFCou: FMM=F IPFlag=           0 FMFlag=      100000 FMFlg1=           0
         NFxFlg=           0 DoJE=T BraDBF=F KetDBF=T FulRan=T
         wScrn=  0.000000 ICntrl=     500 IOpCl=  0 I1Cent=   200000004 NGrid=           0
         NMat0=    1 NMatS0=      1 NMatT0=    0 NMatD0=    1 NMtDS0=    0 NMtDT0=    0
 Petite list used in FoFCou.
 Keep R1 ints in memory in canonical form, NReq=4993994.
 Requested convergence on RMS density matrix=1.00D-08 within 128 cycles.
 Requested convergence on MAX density matrix=1.00D-06.
 Requested convergence on             energy=1.00D-06.
 No special actions if energy rises.
 Integral accuracy reduced to 1.0D-05 until final iterations.
 Initial convergence to 1.0D-05 achieved.  Increase integral accuracy.
 SCF Done:  E(RB3LYP) =  -562.506251250     A.U. after   17 cycles
            NFock= 17  Conv=0.76D-08     -V/T= 2.0141
 Calling FoFJK, ICntrl=      2127 FMM=F ISym2X=0 I1Cent= 0 IOpClX= 0 NMat=1 NMatS=1 NMatT=0.
 ***** Axes restored to original set *****
 -------------------------------------------------------------------
 Center     Atomic                   Forces (Hartrees/Bohr)
 Number     Number              X              Y              Z
 -------------------------------------------------------------------
      1        7           0.002639911   -0.000216800    0.000164838
      2        6          -0.002122967    0.000668366   -0.000025018
      3        6           0.001609908    0.001869963   -0.000559712
      4        6          -0.001343839   -0.002151107   -0.000621785
      5        6           0.001065591    0.002773723    0.000237588
      6        6          -0.002433722   -0.003157381    0.000221895
      7        6          -0.007603798   -0.002386353    0.000610590
      8        6          -0.001616323    0.002597881   -0.002276922
      9        6           0.000783353   -0.002274583   -0.001259150
     10        6          -0.000825734   -0.000891213    0.002798873
     11        6           0.002931744   -0.003642860    0.002378983
     12        6           0.003558586    0.003717138   -0.001106087
     13        7          -0.000708342   -0.002543503   -0.000322913
     14        6           0.002367846    0.004221301    0.000623907
     15        1           0.000622282    0.000039548    0.001359101
     16        1           0.000064115   -0.000565383    0.000120005
     17        1           0.000056385    0.000250482    0.000234030
     18        1           0.000712046    0.001510106   -0.001264492
     19        1           0.000242957    0.000180676   -0.001313731
 -------------------------------------------------------------------
 Cartesian Forces:  Max     0.007603798 RMS     0.002052719

 GradGradGradGradGradGradGradGradGradGradGradGradGradGradGradGradGradGrad
 Berny optimization.
 Using GEDIIS/GDIIS optimizer.
 FormGI is forming the generalized inverse of G from B-inverse, IUseBI=4.
 Internal  Forces:  Max     0.005469708 RMS     0.001121795
 Search for a local minimum.
 Step number   3 out of a maximum of  102
 All quantities printed in internal units (Hartrees-Bohrs-Radians)
 Mixed Optimization -- RFO/linear search
 Update second derivatives using D2CorX and points    1    2    3
 DE= -3.63D-03 DEPred=-3.56D-03 R= 1.02D+00
 TightC=F SS=  1.41D+00  RLast= 3.01D-01 DXNew= 8.4853D-01 9.0234D-01
 Trust test= 1.02D+00 RLast= 3.01D-01 DXMaxT set to 8.49D-01
 ITU=  1  1  0
 Use linear search instead of GDIIS.
     Eigenvalues ---    0.01619   0.01619   0.01957   0.01972   0.02002
     Eigenvalues ---    0.02022   0.02034   0.02052   0.02071   0.02092
     Eigenvalues ---    0.02096   0.02109   0.02133   0.02201   0.02212
     Eigenvalues ---    0.02478   0.04855   0.04913   0.15316   0.15946
     Eigenvalues ---    0.15989   0.15997   0.16124   0.19221   0.22153
     Eigenvalues ---    0.23460   0.23773   0.23937   0.24945   0.24980
     Eigenvalues ---    0.25213   0.34760   0.34786   0.34953   0.35152
     Eigenvalues ---    0.35254   0.38357   0.39348   0.40291   0.40854
     Eigenvalues ---    0.41742   0.43288   0.43616   0.44706   0.45079
     Eigenvalues ---    0.45778   0.45850   0.46918   0.50817   1.27836
     Eigenvalues ---    1.36765
 RFO step:  Lambda=-6.53801460D-04 EMin= 1.61862587D-02
 Quartic linear search produced a step of -0.04574.
 Iteration  1 RMS(Cart)=  0.01540684 RMS(Int)=  0.00026544
 Iteration  2 RMS(Cart)=  0.00030640 RMS(Int)=  0.00009774
 Iteration  3 RMS(Cart)=  0.00000007 RMS(Int)=  0.00009774
 Variable       Old X    -DE/DX   Delta X   Delta X   Delta X     New X
                                 (Linear)    (Quad)   (Total)
    R1        2.27015  -0.00264  -0.00034   0.00116   0.00082   2.27097
    R2        2.76013  -0.00054  -0.00035   0.00085   0.00049   2.76062
    R3        2.66451   0.00012   0.00050   0.00019   0.00071   2.66521
    R4        2.70665  -0.00154   0.00020  -0.00228  -0.00206   2.70458
    R5        2.07953  -0.00043  -0.00019  -0.00026  -0.00044   2.07909
    R6        2.71173   0.00123  -0.00056   0.00610   0.00554   2.71727
    R7        2.64916  -0.00107   0.00076  -0.00298  -0.00224   2.64693
    R8        2.07514  -0.00052  -0.00010  -0.00078  -0.00088   2.07427
    R9        2.76085  -0.00069  -0.00055   0.00265   0.00209   2.76293
   R10        2.77260   0.00224  -0.00081   0.00841   0.00761   2.78021
   R11        2.78651  -0.00268  -0.00063  -0.00149  -0.00218   2.78433
   R12        2.75387   0.00547  -0.00166   0.01756   0.01585   2.76972
   R13        2.70791   0.00296  -0.00046   0.00834   0.00787   2.71577
   R14        2.62952   0.00108   0.00047   0.00090   0.00142   2.63094
   R15        2.07398  -0.00024  -0.00011   0.00005  -0.00006   2.07392
   R16        2.70914  -0.00012  -0.00048   0.00329   0.00287   2.71201
   R17        2.08490  -0.00084  -0.00013  -0.00106  -0.00119   2.08372
   R18        2.68186   0.00309  -0.00095   0.00964   0.00872   2.69058
   R19        2.08942   0.00019  -0.00033   0.00224   0.00190   2.09133
   R20        2.27112  -0.00262  -0.00031   0.00109   0.00079   2.27191
    A1        2.11337   0.00115  -0.00022   0.00495   0.00472   2.11809
    A2        2.07652   0.00003   0.00013   0.00171   0.00175   2.07827
    A3        2.09027  -0.00113   0.00021  -0.00512  -0.00500   2.08527
    A4        2.09996   0.00050  -0.00007   0.00190   0.00178   2.10173
    A5        2.09143  -0.00004  -0.00003  -0.00018  -0.00027   2.09116
    A6        2.09109  -0.00044   0.00013  -0.00115  -0.00102   2.09006
    A7        2.09141  -0.00144   0.00047  -0.00594  -0.00547   2.08594
    A8        2.08665   0.00046   0.00011   0.00061   0.00071   2.08736
    A9        2.10507   0.00098  -0.00058   0.00538   0.00480   2.10987
   A10        2.14994   0.00072  -0.00127   0.00652   0.00524   2.15518
   A11        2.07160   0.00096   0.00000   0.00347   0.00347   2.07507
   A12        2.06157  -0.00168   0.00127  -0.00995  -0.00868   2.05289
   A13        2.01258   0.00099   0.00144  -0.00190  -0.00044   2.01213
   A14        2.06502  -0.00104   0.00147  -0.00774  -0.00626   2.05875
   A15        2.20557   0.00005  -0.00291   0.00960   0.00668   2.21224
   A16        2.10776  -0.00096  -0.00054  -0.00233  -0.00289   2.10487
   A17        2.12444   0.00100  -0.00004   0.00557   0.00549   2.12993
   A18        2.04604   0.00002   0.00078  -0.00152  -0.00079   2.04525
   A19        2.07080   0.00024   0.00074  -0.00279  -0.00194   2.06886
   A20        2.08802  -0.00021   0.00043  -0.00148  -0.00113   2.08688
   A21        2.12408  -0.00002  -0.00117   0.00452   0.00327   2.12735
   A22        2.11001   0.00084  -0.00016   0.00431   0.00414   2.11415
   A23        2.06220   0.00114   0.00023   0.00727   0.00722   2.06943
   A24        2.10708  -0.00189   0.00007  -0.00860  -0.00883   2.09824
   A25        2.21257  -0.00097  -0.00255   0.00498   0.00227   2.21483
   A26        1.99184   0.00065   0.00269  -0.00386  -0.00158   1.99026
   A27        2.07546   0.00042  -0.00003   0.00240   0.00196   2.07742
   A28        1.91296  -0.00009   0.00443  -0.01249  -0.00799   1.90496
   A29        3.13634   0.00066   0.00040   0.03686   0.03726   3.17361
   A30        3.23551  -0.00063  -0.00163  -0.00626  -0.00789   3.22762
   A31        3.14254  -0.00010   0.00004  -0.00593  -0.00589   3.13665
   A32        3.16879  -0.00071   0.00004  -0.01253  -0.01249   3.15630
    D1        3.12501   0.00023   0.00042   0.00889   0.00934   3.13435
    D2        0.02396  -0.00020  -0.00058  -0.00767  -0.00826   0.01570
    D3        0.06718  -0.00038  -0.00203  -0.01205  -0.01413   0.05305
    D4       -3.03387  -0.00082  -0.00304  -0.02861  -0.03172  -3.06560
    D5       -0.02186   0.00025   0.00052   0.00989   0.01038  -0.01148
    D6       -3.05373  -0.00038  -0.00267  -0.00911  -0.01183  -3.06556
    D7        3.03532   0.00093   0.00299   0.03132   0.03426   3.06958
    D8        0.00345   0.00030  -0.00020   0.01232   0.01205   0.01549
    D9       -3.11589  -0.00036  -0.00061  -0.01441  -0.01503  -3.13092
   D10        0.01501  -0.00022  -0.00039  -0.00850  -0.00891   0.00610
   D11       -0.01464   0.00009   0.00039   0.00212   0.00251  -0.01213
   D12        3.11626   0.00023   0.00061   0.00803   0.00862   3.12489
   D13        0.00328   0.00002  -0.00013   0.00140   0.00126   0.00454
   D14        3.13093   0.00011   0.00018   0.00469   0.00485   3.13578
[...]
 ! D14   D(4,5,6,14)           180.0025         -DE/DX =    0.0                 !
 ! D15   D(16,5,6,7)          -179.9986         -DE/DX =    0.0                 !
 ! D16   D(16,5,6,14)            0.0001         -DE/DX =    0.0                 !
 ! D17   D(5,6,7,8)             -0.0037         -DE/DX =    0.0                 !
 ! D18   D(5,6,7,12)           180.0001         -DE/DX =    0.0                 !
 ! D19   D(14,6,7,8)          -180.0024         -DE/DX =    0.0                 !
 ! D20   D(14,6,7,12)            0.0014         -DE/DX =    0.0                 !
 ! D21   D(6,7,8,3)              0.0035         -DE/DX =    0.0                 !
 ! D22   D(6,7,8,9)            179.9934         -DE/DX =    0.0                 !
 ! D23   D(12,7,8,3)          -180.0008         -DE/DX =    0.0                 !
 ! D24   D(12,7,8,9)            -0.0109         -DE/DX =    0.0                 !
 ! D25   D(6,7,12,11)         -179.9899         -DE/DX =    0.0                 !
 ! D26   D(8,7,12,11)            0.0145         -DE/DX =    0.0                 !
 ! D27   D(3,8,9,10)           179.9883         -DE/DX =    0.0                 !
 ! D28   D(3,8,9,17)            -0.0135         -DE/DX =    0.0                 !
 ! D29   D(7,8,9,10)            -0.0012         -DE/DX =    0.0                 !
 ! D30   D(7,8,9,17)           179.9969         -DE/DX =    0.0                 !
 ! D31   D(8,9,10,11)            0.0074         -DE/DX =    0.0                 !
 ! D32   D(8,9,10,18)         -179.9964         -DE/DX =    0.0                 !
 ! D33   D(17,9,10,11)        -179.9907         -DE/DX =    0.0                 !
 ! D34   D(17,9,10,18)           0.0055         -DE/DX =    0.0                 !
 ! D35   D(9,10,11,12)          -0.0025         -DE/DX =    0.0                 !
 ! D36   D(9,10,11,19)         179.9988         -DE/DX =    0.0                 !
 ! D37   D(18,10,11,12)       -179.9986         -DE/DX =    0.0                 !
 ! D38   D(18,10,11,19)          0.0027         -DE/DX =    0.0                 !
 ! D39   D(10,11,12,7)          -0.0077         -DE/DX =    0.0                 !
 ! D40   D(19,11,12,7)         179.991          -DE/DX =    0.0                 !
 --------------------------------------------------------------------------------
 GradGradGradGradGradGradGradGradGradGradGradGradGradGradGradGradGradGrad

                          Input orientation:                          
 ---------------------------------------------------------------------
 Center     Atomic      Atomic             Coordinates (Angstroms)
 Number     Number       Type             X           Y           Z
 ---------------------------------------------------------------------
      1          7           0        1.074863   -0.072844    0.069104
      2          6           0        2.273972   -0.033280    0.068374
      3          6           0        4.482168   -1.176846    0.067156
      4          6           0        3.734934    0.014309    0.067443
      5          6           0        4.408185    1.286805    0.066713
      6          6           0        5.807528    1.313772    0.065800
      7          6           0        6.635537    0.119675    0.065459
      8          6           0        5.915239   -1.158655    0.066223
      9          6           0        6.701181   -2.357454    0.065766
     10          6           0        8.089176   -2.235595    0.064608
     11          6           0        8.727715   -0.954121    0.064041
     12          6           0        8.096860    0.329988    0.064479
     13          7           0        6.959263    3.724076    0.064589
     14          6           0        6.514746    2.608241    0.065098
     15          1           0        3.952250   -2.140963    0.067586
     16          1           0        3.820219    2.212998    0.066919
     17          1           0        6.204948   -3.335828    0.066357
     18          1           0        8.697868   -3.154679    0.064192
     19          1           0        9.832546   -1.000650    0.063144
 ---------------------------------------------------------------------
                    Distance matrix (angstroms):
                    1          2          3          4          5
     1  N    0.000000
     2  C    1.199762   0.000000
     3  C    3.581697   2.486740   0.000000
     4  C    2.661499   1.461737   1.406133   0.000000
     5  C    3.599957   2.509480   2.464762   1.439623   0.000000
     6  C    4.931616   3.781610   2.821305   2.446274   1.399603
     7  C    5.564007   4.364247   2.513556   2.902517   2.514615
     8  C    4.960669   3.811207   1.433187   2.475798   2.872540
     9  C    6.072472   5.000197   2.513535   3.797879   4.305631
    10  C    7.340170   6.218264   3.759184   4.901173   5.094801
    11  C    7.703429   6.519108   4.251386   5.085837   4.866220
    12  C    7.033543   5.834209   3.916191   4.373335   3.810751
    13  N    7.003055   6.005804   5.491360   4.915147   3.528213
    14  C    6.064697   4.996179   4.296307   3.802084   2.486723
    15  H    3.543512   2.694243   1.100152   2.166200   3.457958
    16  H    3.572402   2.727021   3.453870   2.200343   1.097058
    17  H    6.079872   5.134141   2.762096   4.162258   4.959546
    18  H    8.222405   7.142100   4.656604   5.888396   6.174801
    19  H    8.806694   7.620228   5.353280   6.181507   5.886947
                    6          7          8          9         10
     6  C    0.000000
     7  C    1.453089   0.000000
     8  C    2.474772   1.467295   0.000000
     9  C    3.778428   2.477998   1.433466   0.000000
    10  C    4.219470   2.767736   2.426068   1.393334   0.000000
    11  C    3.697410   2.351649   2.819905   2.464992   1.431750
    12  C    2.491761   1.476380   2.641123   3.028244   2.565594
    13  N    2.671340   3.618910   4.993100   6.087003   6.065837
    14  C    1.475061   2.491496   3.814303   4.969193   5.093287
    15  H    3.921384   3.508634   2.195052   2.757443   4.138009
    16  H    2.181285   3.508278   3.969527   5.402682   6.165547
    17  H    4.666555   3.482228   2.196365   1.097025   2.181933
    18  H    5.321760   3.869703   3.424492   2.149960   1.102371
    19  H    4.642987   3.387624   3.920493   3.412678   2.136453
                   11         12         13         14         15
    11  C    0.000000
    12  C    1.430705   0.000000
    13  N    5.001295   3.579659   0.000000
    14  C    4.193765   2.773720   1.201118   0.000000
    15  H    4.920739   4.825287   6.590964   5.396418   0.000000
    16  H    5.840734   4.672835   3.483813   2.723360   4.355962
    17  H    3.469422   4.125232   7.100087   5.952137   2.549971
    18  H    2.200760   3.536116   7.095070   6.162570   4.852682
    19  H    1.105810   2.187054   5.529809   4.902233   5.989842
                   16         17         18         19
    16  H    0.000000
    17  H    6.039570   0.000000
    18  H    7.252822   2.499494   0.000000
    19  H    6.817303   4.314225   2.434612   0.000000
 Stoichiometry    C12H5N2(1-)
 Framework group  C1[X(C12H5N2)]
 Deg. of freedom    51
 Full point group                 C1      NOp   1
 Largest Abelian subgroup         C1      NOp   1
 Largest concise Abelian subgroup C1      NOp   1
                         Standard orientation:                         
 ---------------------------------------------------------------------
 Center     Atomic      Atomic             Coordinates (Angstroms)
 Number     Number       Type             X           Y           Z
 ---------------------------------------------------------------------
      1          7           0        4.532517   -0.835631    0.000118
      2          6           0        3.353970   -0.611012    0.000022
      3          6           0        0.995428   -1.399146   -0.000095
      4          6           0        1.917964   -0.337951   -0.000052
      5          6           0        1.449706    1.023390    0.000026
      6          6           0        0.071386    1.266545   -0.000022
      7          6           0       -0.931407    0.214940   -0.000066
      8          6           0       -0.417571   -1.159443   -0.000144
      9          6           0       -1.379533   -2.222202   -0.000042
     10          6           0       -2.731959   -1.887054    0.000149
     11          6           0       -3.164534   -0.522215    0.000086
     12          6           0       -2.342592    0.648822   -0.000116
     13          7           0       -0.693547    3.826024    0.000037
     14          6           0       -0.427030    2.654849    0.000001
     15          1           0        1.369792   -2.433644   -0.000017
     16          1           0        2.173895    1.847457    0.000081
     17          1           0       -1.040653   -3.265574   -0.000147
     18          1           0       -3.475525   -2.700891    0.000288
     19          1           0       -4.263259   -0.397239    0.000234
 ---------------------------------------------------------------------
 Rotational constants (GHZ):      0.9827932      0.5858897      0.3670649

 **********************************************************************

            Population analysis using the SCF density.

 **********************************************************************

 Orbital symmetries:
       Occupied  (A) (A) (A) (A) (A) (A) (A) (A) (A) (A) (A) (A)
                 (A) (A) (A) (A) (A) (A) (A) (A) (A) (A) (A) (A)
                 (A) (A) (A) (A) (A) (A) (A) (A) (A) (A) (A) (A)
                 (A) (A) (A) (A) (A) (A) (A) (A) (A) (A)
       Virtual   (A) (A) (A) (A) (A) (A) (A) (A) (A) (A) (A) (A)
                 (A) (A) (A) (A) (A) (A) (A) (A) (A) (A) (A) (A)
                 (A) (A) (A) (A) (A)
 The electronic state is 1-A.
 Alpha  occ. eigenvalues --  -13.99983 -13.96612  -9.91257  -9.90440  -9.89521
 Alpha  occ. eigenvalues --   -9.88504  -9.88195  -9.87589  -9.86060  -9.83552
 Alpha  occ. eigenvalues --   -9.83172  -9.83034  -9.78647  -9.66112  -0.73445
 Alpha  occ. eigenvalues --   -0.70177  -0.67209  -0.61315  -0.58615  -0.54198
 Alpha  occ. eigenvalues --   -0.49909  -0.44815  -0.43378  -0.39291  -0.34259
 Alpha  occ. eigenvalues --   -0.31565  -0.30084  -0.28848  -0.24826  -0.23056
 Alpha  occ. eigenvalues --   -0.21165  -0.19920  -0.18516  -0.16876  -0.16628
 Alpha  occ. eigenvalues --   -0.16177  -0.14634  -0.14049  -0.12946  -0.11008
 Alpha  occ. eigenvalues --   -0.10320  -0.08906  -0.06084  -0.02822   0.02519
 Alpha  occ. eigenvalues --    0.11668
 Alpha virt. eigenvalues --    0.16832   0.19762   0.24871   0.27111   0.28526
 Alpha virt. eigenvalues --    0.29420   0.34198   0.37613   0.41934   0.46230
 Alpha virt. eigenvalues --    0.46305   0.51823   0.53097   0.53943   0.57793
 Alpha virt. eigenvalues --    0.59309   0.61839   0.62228   0.68966   0.69128
 Alpha virt. eigenvalues --    0.70804   0.76305   0.78015   0.82408   0.84604
 Alpha virt. eigenvalues --    0.92464   0.93996   1.05694   1.07731
          Condensed to atoms (all electrons):
               1          2          3          4          5          6
     1  N    6.588121   0.660947  -0.000112  -0.010928  -0.000074  -0.000001
     2  C    0.660947   4.934062  -0.029077   0.419494  -0.028365   0.000827
     3  C   -0.000112  -0.029077   4.836308   0.505154  -0.029528  -0.009546
     4  C   -0.010928   0.419494   0.505154   4.769439   0.464652  -0.028582
     5  C   -0.000074  -0.028365  -0.029528   0.464652   4.846229   0.510478
     6  C   -0.000001   0.000827  -0.009546  -0.028582   0.510478   4.786205
     7  C    0.000000   0.000010  -0.022597  -0.007905  -0.025235   0.450172
     8  C   -0.000001   0.000840   0.471213  -0.027443  -0.007369  -0.033159
     9  C    0.000000  -0.000006  -0.029081   0.000747   0.000033   0.000866
    10  C    0.000000   0.000000   0.000813  -0.000008   0.000001   0.000013
    11  C    0.000000   0.000000   0.000044   0.000001  -0.000017   0.001514
    12  C    0.000000   0.000000   0.000568   0.000021   0.000775  -0.038517
    13  N    0.000000   0.000000   0.000000  -0.000001  -0.000263  -0.010049
    14  C    0.000000  -0.000005   0.000010   0.000881  -0.030051   0.404864
    15  H    0.000058  -0.003488   0.383580  -0.026405   0.001301   0.000017
    16  H    0.000054  -0.003001   0.001194  -0.024233   0.387276  -0.023654
    17  H    0.000000   0.000000  -0.003302   0.000009   0.000000  -0.000020
    18  H    0.000000   0.000000  -0.000017   0.000000   0.000000   0.000001
    19  H    0.000000   0.000000   0.000001   0.000000   0.000000  -0.000016
               7          8          9         10         11         12
     1  N    0.000000  -0.000001   0.000000   0.000000   0.000000   0.000000
     2  C    0.000010   0.000840  -0.000006   0.000000   0.000000   0.000000
     3  C   -0.022597   0.471213  -0.029081   0.000813   0.000044   0.000568
     4  C   -0.007905  -0.027443   0.000747  -0.000008   0.000001   0.000021
     5  C   -0.025235  -0.007369   0.000033   0.000001  -0.000017   0.000775
     6  C    0.450172  -0.033159   0.000866   0.000013   0.001514  -0.038517
     7  C    4.912097   0.433504  -0.031136  -0.013973  -0.030430   0.393730
     8  C    0.433504   4.822260   0.472744  -0.029478  -0.012261  -0.016874
     9  C   -0.031136   0.472744   4.870244   0.518391  -0.029631  -0.005806
    10  C   -0.013973  -0.029478   0.518391   4.856178   0.467256  -0.018037
    11  C   -0.030430  -0.012261  -0.029631   0.467256   4.940637   0.448639
    12  C    0.393730  -0.016874  -0.005806  -0.018037   0.448639   5.478089
    13  N    0.000104  -0.000002   0.000000   0.000000   0.000002  -0.000988
    14  C   -0.031176   0.000978  -0.000005   0.000002  -0.000028   0.006846
    15  H    0.001126  -0.023727  -0.003292   0.000015  -0.000002  -0.000013
    16  H    0.001143   0.000016   0.000001   0.000000   0.000000  -0.000018
    17  H    0.001153  -0.025524   0.386392  -0.024895   0.001254  -0.000006
    18  H    0.000098   0.001492  -0.028394   0.380131  -0.023719   0.001054
    19  H    0.002354   0.000007   0.001457  -0.035651   0.379474  -0.032187
              13         14         15         16         17         18
     1  N    0.000000   0.000000   0.000058   0.000054   0.000000   0.000000
     2  C    0.000000  -0.000005  -0.003488  -0.003001   0.000000   0.000000
     3  C    0.000000   0.000010   0.383580   0.001194  -0.003302  -0.000017
     4  C   -0.000001   0.000881  -0.026405  -0.024233   0.000009   0.000000
     5  C   -0.000263  -0.030051   0.001301   0.387276   0.000000   0.000000
     6  C   -0.010049   0.404864   0.000017  -0.023654  -0.000020   0.000001
     7  C    0.000104  -0.031176   0.001126   0.001143   0.001153   0.000098
     8  C   -0.000002   0.000978  -0.023727   0.000016  -0.025524   0.001492
     9  C    0.000000  -0.000005  -0.003292   0.000001   0.386392  -0.028394
    10  C    0.000000   0.000002   0.000015   0.000000  -0.024895   0.380131
    11  C    0.000002  -0.000028  -0.000002   0.000000   0.001254  -0.023719
    12  C   -0.000988   0.006846  -0.000013  -0.000018  -0.000006   0.001054
    13  N    6.594555   0.658643   0.000000   0.000072   0.000000   0.000000
    14  C    0.658643   4.922090   0.000001  -0.003298   0.000000   0.000000
    15  H    0.000000   0.000001   0.606287  -0.000034   0.001008  -0.000002
    16  H    0.000072  -0.003298  -0.000034   0.595379   0.000000   0.000000
    17  H    0.000000   0.000000   0.001008   0.000000   0.631011  -0.003769
    18  H    0.000000   0.000000  -0.000002   0.000000  -0.003769   0.642255
    19  H    0.000000  -0.000005   0.000000   0.000000  -0.000040  -0.003747
              19
     1  N    0.000000
     2  C    0.000000
     3  C    0.000001
     4  C    0.000000
     5  C    0.000000
     6  C   -0.000016
     7  C    0.002354
     8  C    0.000007
     9  C    0.001457
    10  C   -0.035651
    11  C    0.379474
    12  C   -0.032187
    13  N    0.000000
    14  C   -0.000005
    15  H    0.000000
    16  H    0.000000
    17  H   -0.000040
    18  H   -0.003747
    19  H    0.673925
 Mulliken charges:
               1
     1  N   -0.238065
     2  C    0.047763
     3  C   -0.075625
     4  C   -0.034894
     5  C   -0.089844
     6  C   -0.011414
     7  C   -0.033040
     8  C   -0.027215
     9  C   -0.123522
    10  C   -0.100758
    11  C   -0.142735
    12  C   -0.217276
    13  N   -0.242074
    14  C    0.070254
    15  H    0.063570
    16  H    0.069101
    17  H    0.036729
    18  H    0.034617
    19  H    0.014429
 Sum of Mulliken charges =  -1.00000
 Mulliken charges with hydrogens summed into heavy atoms:
               1
     1  N   -0.238065
     2  C    0.047763
     3  C   -0.012055
     4  C   -0.034894
     5  C   -0.020743
     6  C   -0.011414
     7  C   -0.033040
     8  C   -0.027215
     9  C   -0.086793
    10  C   -0.066141
    11  C   -0.128306
    12  C   -0.217276
    13  N   -0.242074
    14  C    0.070254
 Electronic spatial extent (au):  <R**2>=           2789.1147
 Charge=             -1.0000 electrons
 Dipole moment (field-independent basis, Debye):
    X=              2.4357    Y=             -3.8183    Z=              0.0002  Tot=              4.5291
 Quadrupole moment (field-independent basis, Debye-Ang):
   XX=           -117.1916   YY=            -96.9826   ZZ=            -74.1651
   XY=             11.3211   XZ=             -0.0016   YZ=              0.0004
 Traceless Quadrupole moment (field-independent basis, Debye-Ang):
   XX=            -21.0785   YY=             -0.8695   ZZ=             21.9480
   XY=             11.3211   XZ=             -0.0016   YZ=              0.0004
 Octapole moment (field-independent basis, Debye-Ang**2):
  XXX=            -79.3707  YYY=            -84.4718  ZZZ=              0.0005  XYY=             30.2520
  XXY=             17.8118  XXZ=             -0.0014  XZZ=              4.3449  YZZ=              3.8001
  YYZ=             -0.0003  XYZ=              0.0000
 Hexadecapole moment (field-independent basis, Debye-Ang**3):
 XXXX=          -2983.1307 YYYY=          -1682.5014 ZZZZ=            -58.3877 XXXY=            151.1780
 XXXZ=             -0.0295 YYYX=             67.7184 YYYZ=             -0.0028 ZZZX=              0.0015
 ZZZY=              0.0003 XXYY=           -630.8919 XXZZ=           -376.2915 YYZZ=           -231.6444
 XXYZ=              0.0061 YYXZ=             -0.0012 ZZXY=             -7.4087
 N-N= 6.952442248660D+02 E-N=-2.712731705455D+03  KE= 5.547090060694D+02
 1\1\GINC-N041\FOpt\RB3LYP\STO-3G\C12H5N2(1-)\R2532\15-Jun-2021\0\\#N B
 3LYP/STO-3G OPT\\2Naph\\-1,1\N,1.0748630777,-0.0728438819,0.0691036412
 \C,2.2739720889,-0.0332795253,0.0683738288\C,4.4821682355,-1.176845900
 5,0.0671556892\C,3.7349339566,0.014308887,0.0674431562\C,4.4081852382,
 1.2868051234,0.0667125499\C,5.807528199,1.3137724782,0.0657998898\C,6.
 6355367968,0.119674657,0.0654593841\C,5.9152390305,-1.1586545562,0.066
 2227664\C,6.701181336,-2.3574538217,0.0657658547\C,8.0891762479,-2.235
 5948789,0.0646077257\C,8.7277154031,-0.954121439,0.0640407107\C,8.0968
 598203,0.3299878327,0.0644792909\N,6.9592625602,3.7240759087,0.0645885
 48\C,6.5147456778,2.6082408724,0.0650979836\H,3.9522504646,-2.14096280
 25,0.0675860546\H,3.8202194841,2.2129979517,0.0669189585\H,6.204948138
 6,-3.3358284185,0.0663574979\H,8.6978683216,-3.1546789347,0.0641921631
 \H,9.8325459226,-1.000649552,0.0631443066\\Version=ES64L-G09RevD.01\St
 ate=1-A\HF=-562.5070531\RMSD=7.321e-09\RMSF=1.976e-05\Dipole=-1.179170
 7,-1.3358934,0.0009376\Quadrupole=-17.8848935,1.5671221,16.3177714,-5.
 7172246,0.0230308,0.0059939\PG=C01 [X(C12H5N2)]\\@


 Cherishing children is the mark of a civilized society.
 -- Joan Ganz Cooney
 Job cpu time:       0 days  0 hours  6 minutes 51.2 seconds.
 File lengths (MBytes):  RWF=      5 Int=      0 D2E=      0 Chk=      2 Scr=      1
 Normal termination of Gaussian 09 at Tue Jun 15 11:15:46 2021.
