 Entering Gaussian System, Link 0=/usr/local/apps//g09/g09
 Input=10.com
 Output=10.out
 Initial command:
 /usr/local/apps//g09/l1.exe "/tmp/bnp.472698.sequoia/Gau-16954.inp" -scrdir="/tmp/bnp.472698.sequoia/"
 Entering Link 1 = /usr/local/apps//g09/l1.exe PID=     16955.
  
 Copyright (c) 1988,1990,1992,1993,1995,1998,2003,2009,2013,
            Gaussian, Inc.  All Rights Reserved.
  
 This is part of the Gaussian(R) 09 program.  It is based on
 the Gaussian(R) 03 system (copyright 2003, Gaussian, Inc.),
 the Gaussian(R) 98 system (copyright 1998, Gaussian, Inc.),
 the Gaussian(R) 94 system (copyright 1995, Gaussian, Inc.),
 the Gaussian 92(TM) system (copyright 1992, Gaussian, Inc.),
 the Gaussian 90(TM) system (copyright 1990, Gaussian, Inc.),
 the Gaussian 88(TM) system (copyright 1988, Gaussian, Inc.),
 the Gaussian 86(TM) system (copyright 1986, Carnegie Mellon
 University), and the Gaussian 82(TM) system (copyright 1983,
 Carnegie Mellon University). Gaussian is a federally registered
 trademark of Gaussian, Inc.
  
 This software contains proprietary and confidential information,
 including trade secrets, belonging to Gaussian, Inc.
  
 This software is provided under written license and may be
 used, copied, transmitted, or stored only in accord with that
 written license.
  
 The following legend is applicable only to US Government
 contracts under FAR:
  
                    RESTRICTED RIGHTS LEGEND
  
 Use, reproduction and disclosure by the US Government is
 subject to restrictions as set forth in subparagraphs (a)
 and (c) of the Commercial Computer Software - Restricted
 Rights clause in FAR 52.227-19.
  
 Gaussian, Inc.
 340 Quinnipiac St., Bldg. 40, Wallingford CT 06492
  
  
 ---------------------------------------------------------------
 Warning -- This program may not be used in any manner that
 competes with the business of Gaussian, Inc. or will provide
 assistance to any competitor of Gaussian, Inc.  The licensee
 of this program is prohibited from giving any competitor of
 Gaussian, Inc. access to this program.  By using this program,
 the user acknowledges that Gaussian, Inc. is engaged in the
 business of creating and licensing software in the field of
 computational chemistry and represents and warrants to the
 licensee that it is not a competitor of Gaussian, Inc. and that
 it will not use this program in any manner prohibited above.
 ---------------------------------------------------------------
  

 Cite this work as:
 Gaussian 09, Revision D.01,
 M. J. Frisch, G. W. Trucks, H. B. Schlegel, G. E. Scuseria, 
 M. A. Robb, J. R. Cheeseman, G. Scalmani, V. Barone, B. Mennucci, 
 G. A. Petersson, H. Nakatsuji, M. Caricato, X. Li, H. P. Hratchian, 
 A. F. Izmaylov, J. Bloino, G. Zheng, J. L. Sonnenberg, M. Hada, 
 M. Ehara, K. Toyota, R. Fukuda, J. Hasegawa, M. Ishida, T. Nakajima, 
 Y. Honda, O. Kitao, H. Nakai, T. Vreven, J. A. Montgomery, Jr., 
 J. E. Peralta, F. Ogliaro, M. Bearpark, J. J. Heyd, E. Brothers, 
 K. N. Kudin, V. N. Staroverov, T. Keith, R. Kobayashi, J. Normand, 
 K. Raghavachari, A. Rendell, J. C. Burant, S. S. Iyengar, J. Tomasi, 
 M. Cossi, N. Rega, J. M. Millam, M. Klene, J. E. Knox, J. B. Cross, 
 V. Bakken, C. Adamo, J. Jaramillo, R. Gomperts, R. E. Stratmann, 
 O. Yazyev, A. J. Austin, R. Cammi, C. Pomelli, J. W. Ochterski, 
 R. L. Martin, K. Morokuma, V. G. Zakrzewski, G. A. Voth, 
 P. Salvador, J. J. Dannenberg, S. Dapprich, A. D. Daniels, 
 O. Farkas, J. B. Foresman, J. V. Ortiz, J. Cioslowski, 
 and D. J. Fox, Gaussian, Inc., Wallingford CT, 2013.
 
 ******************************************
 Gaussian 09:  ES64L-G09RevD.01 24-Apr-2013
                15-Jun-2021 
 ******************************************
 -------------------
 #N B3LYP/STO-3G OPT
 -------------------
 1/14=-1,18=20,19=15,26=3,38=1/1,3;
 2/9=110,12=2,17=6,18=5,40=1/2;
 3/6=3,11=2,16=1,25=1,30=1,71=1,74=-5/1,2,3;
 4//1;
 5/5=2,38=5/2;
 6/7=2,8=2,9=2,10=2,28=1/1;
 7//1,2,3,16;
 1/14=-1,18=20,19=15,26=3/3(2);
 2/9=110/2;
 99//99;
 2/9=110/2;
 3/6=3,11=2,16=1,25=1,30=1,71=1,74=-5/1,2,3;
 4/5=5,16=3,69=1/1;
 5/5=2,38=5/2;
 7//1,2,3,16;
 1/14=-1,18=20,19=15,26=3/3(-5);
 2/9=110/2;
 6/7=2,8=2,9=2,10=2,19=2,28=1/1;
 99/9=1/99;
 -----
 1Naph
 -----
 Symbolic Z-matrix:
 Charge = -1 Multiplicity = 1
 N                     1.18183  -0.08284  -0.02467 
 C                     2.34197  -0.1165   -0.02451 
 C                     3.77839  -0.14227  -0.02429 
 C                     4.45381   1.08946  -0.02392 
 C                     5.8476    1.12739  -0.02364 
 C                     6.56986  -0.06789  -0.02392 
 C                     5.91516  -1.3099   -0.02421 
 C                     4.49829  -1.36708  -0.0243 
 C                     3.89067  -2.6476   -0.02437 
 C                     4.65549  -3.81718  -0.0245 
 C                     6.04016  -3.73949  -0.02467 
 C                     6.66521  -2.49649  -0.02442 
 N                     7.10663   3.39566  -0.02244 
 C                     6.54064   2.38275  -0.02298 
 H                     3.88616   2.02084  -0.02387 
 H                     7.65974  -0.03097  -0.02388 
 H                     2.80614  -2.75564  -0.02444 
 H                     4.17428  -4.79131  -0.02448 
 H                     7.75255  -2.47032  -0.02442 
 

 GradGradGradGradGradGradGradGradGradGradGradGradGradGradGradGradGradGrad
 Berny optimization.
 Initialization pass.
                           ----------------------------
                           !    Initial Parameters    !
                           ! (Angstroms and Degrees)  !
 --------------------------                            --------------------------
 ! Name  Definition              Value          Derivative Info.                !
 --------------------------------------------------------------------------------
 ! R1    R(1,2)                  1.1606         estimate D2E/DX2                !
 ! R2    R(2,3)                  1.4367         estimate D2E/DX2                !
 ! R3    R(3,4)                  1.4048         estimate D2E/DX2                !
 ! R4    R(3,8)                  1.4207         estimate D2E/DX2                !
 ! R5    R(4,5)                  1.3943         estimate D2E/DX2                !
 ! R6    R(4,15)                 1.0907         estimate D2E/DX2                !
 ! R7    R(5,6)                  1.3966         estimate D2E/DX2                !
 ! R8    R(5,14)                 1.434          estimate D2E/DX2                !
 ! R9    R(6,7)                  1.404          estimate D2E/DX2                !
 ! R10   R(6,16)                 1.0905         estimate D2E/DX2                !
 ! R11   R(7,8)                  1.418          estimate D2E/DX2                !
 ! R12   R(7,12)                 1.4038         estimate D2E/DX2                !
 ! R13   R(8,9)                  1.4174         estimate D2E/DX2                !
 ! R14   R(9,10)                 1.3975         estimate D2E/DX2                !
 ! R15   R(9,17)                 1.0899         estimate D2E/DX2                !
 ! R16   R(10,11)                1.3868         estimate D2E/DX2                !
 ! R17   R(10,18)                1.0865         estimate D2E/DX2                !
 ! R18   R(11,12)                1.3913         estimate D2E/DX2                !
 ! R19   R(12,19)                1.0877         estimate D2E/DX2                !
 ! R20   R(13,14)                1.1603         estimate D2E/DX2                !
 ! A1    A(2,3,4)              117.7104         estimate D2E/DX2                !
 ! A2    A(2,3,8)              121.4733         estimate D2E/DX2                !
 ! A3    A(4,3,8)              120.8163         estimate D2E/DX2                !
 ! A4    A(3,4,5)              120.297          estimate D2E/DX2                !
 ! A5    A(3,4,15)             119.9007         estimate D2E/DX2                !
 ! A6    A(5,4,15)             119.8023         estimate D2E/DX2                !
 ! A7    A(4,5,6)              119.5841         estimate D2E/DX2                !
 ! A8    A(4,5,14)             120.4604         estimate D2E/DX2                !
 ! A9    A(6,5,14)             119.9556         estimate D2E/DX2                !
 ! A10   A(5,6,7)              121.0621         estimate D2E/DX2                !
 ! A11   A(5,6,16)             119.2027         estimate D2E/DX2                !
 ! A12   A(7,6,16)             119.7352         estimate D2E/DX2                !
 ! A13   A(6,7,8)              120.106          estimate D2E/DX2                !
 ! A14   A(6,7,12)             119.9078         estimate D2E/DX2                !
 ! A15   A(8,7,12)             119.9862         estimate D2E/DX2                !
 ! A16   A(3,8,7)              118.1345         estimate D2E/DX2                !
 ! A17   A(3,8,9)              124.1697         estimate D2E/DX2                !
 ! A18   A(7,8,9)              117.6958         estimate D2E/DX2                !
 ! A19   A(8,9,10)             121.4334         estimate D2E/DX2                !
 ! A20   A(8,9,17)             121.0738         estimate D2E/DX2                !
 ! A21   A(10,9,17)            117.4928         estimate D2E/DX2                !
 ! A22   A(9,10,11)            119.9704         estimate D2E/DX2                !
 ! A23   A(9,10,18)            120.5294         estimate D2E/DX2                !
 ! A24   A(11,10,18)           119.5002         estimate D2E/DX2                !
 ! A25   A(10,11,12)           119.9071         estimate D2E/DX2                !
 ! A26   A(7,12,11)            121.007          estimate D2E/DX2                !
 ! A27   A(7,12,19)            120.9185         estimate D2E/DX2                !
 ! A28   A(11,12,19)           118.0745         estimate D2E/DX2                !
 ! A29   L(1,2,3,17,-1)        180.6341         estimate D2E/DX2                !
 ! A30   L(5,14,13,16,-1)      179.7061         estimate D2E/DX2                !
 ! A31   L(1,2,3,17,-2)        180.0009         estimate D2E/DX2                !
 ! A32   L(5,14,13,16,-2)      180.0004         estimate D2E/DX2                !
 ! D1    D(2,3,4,5)            179.9975         estimate D2E/DX2                !
 ! D2    D(2,3,4,15)            -0.0037         estimate D2E/DX2                !
 ! D3    D(8,3,4,5)              0.004          estimate D2E/DX2                !
 ! D4    D(8,3,4,15)          -179.9971         estimate D2E/DX2                !
 ! D5    D(2,3,8,7)            179.9938         estimate D2E/DX2                !
 ! D6    D(2,3,8,9)             -0.0074         estimate D2E/DX2                !
 ! D7    D(4,3,8,7)             -0.013          estimate D2E/DX2                !
 ! D8    D(4,3,8,9)            179.9858         estimate D2E/DX2                !
 ! D9    D(3,4,5,6)              0.009          estimate D2E/DX2                !
 ! D10   D(3,4,5,14)          -179.9869         estimate D2E/DX2                !
 ! D11   D(15,4,5,6)          -179.9899         estimate D2E/DX2                !
 ! D12   D(15,4,5,14)            0.0142         estimate D2E/DX2                !
 ! D13   D(4,5,6,7)             -0.0129         estimate D2E/DX2                !
 ! D14   D(4,5,6,16)           179.9891         estimate D2E/DX2                !
 ! D15   D(14,5,6,7)           179.9831         estimate D2E/DX2                !
 ! D16   D(14,5,6,16)           -0.015          estimate D2E/DX2                !
 ! D17   D(5,6,7,8)              0.0036         estimate D2E/DX2                !
 ! D18   D(5,6,7,12)          -179.9968         estimate D2E/DX2                !
 ! D19   D(16,6,7,8)          -179.9983         estimate D2E/DX2                !
 ! D20   D(16,6,7,12)            0.0013         estimate D2E/DX2                !
 ! D21   D(6,7,8,3)              0.0092         estimate D2E/DX2                !
 ! D22   D(6,7,8,9)           -179.9897         estimate D2E/DX2                !
 ! D23   D(12,7,8,3)          -179.9904         estimate D2E/DX2                !
 ! D24   D(12,7,8,9)             0.0107         estimate D2E/DX2                !
 ! D25   D(6,7,12,11)          179.9981         estimate D2E/DX2                !
 ! D26   D(6,7,12,19)           -0.0036         estimate D2E/DX2                !
 ! D27   D(8,7,12,11)           -0.0023         estimate D2E/DX2                !
 ! D28   D(8,7,12,19)          179.996          estimate D2E/DX2                !
 ! D29   D(3,8,9,10)           179.994          estimate D2E/DX2                !
 ! D30   D(3,8,9,17)             0.0012         estimate D2E/DX2                !
 ! D31   D(7,8,9,10)            -0.0071         estimate D2E/DX2                !
 ! D32   D(7,8,9,17)           180.0            estimate D2E/DX2                !
 ! D33   D(8,9,10,11)           -0.0051         estimate D2E/DX2                !
 ! D34   D(8,9,10,18)          179.9956         estimate D2E/DX2                !
 ! D35   D(17,9,10,11)         179.988          estimate D2E/DX2                !
 ! D36   D(17,9,10,18)          -0.0113         estimate D2E/DX2                !
 ! D37   D(9,10,11,12)           0.0138         estimate D2E/DX2                !
 ! D38   D(18,10,11,12)       -179.9868         estimate D2E/DX2                !
 ! D39   D(10,11,12,7)          -0.0102         estimate D2E/DX2                !
 ! D40   D(10,11,12,19)        179.9915         estimate D2E/DX2                !
 --------------------------------------------------------------------------------
 Trust Radius=3.00D-01 FncErr=1.00D-07 GrdErr=1.00D-06
 Number of steps in this run=    102 maximum allowed number of steps=    114.
 GradGradGradGradGradGradGradGradGradGradGradGradGradGradGradGradGradGrad

                          Input orientation:                          
 ---------------------------------------------------------------------
 Center     Atomic      Atomic             Coordinates (Angstroms)
 Number     Number       Type             X           Y           Z
 ---------------------------------------------------------------------
      1          7           0        1.181830   -0.082840   -0.024670
      2          6           0        2.341970   -0.116500   -0.024510
      3          6           0        3.778390   -0.142270   -0.024290
      4          6           0        4.453810    1.089460   -0.023920
      5          6           0        5.847600    1.127390   -0.023640
      6          6           0        6.569860   -0.067890   -0.023920
      7          6           0        5.915160   -1.309900   -0.024210
      8          6           0        4.498290   -1.367080   -0.024300
      9          6           0        3.890670   -2.647600   -0.024370
     10          6           0        4.655490   -3.817180   -0.024500
     11          6           0        6.040160   -3.739490   -0.024670
     12          6           0        6.665210   -2.496490   -0.024420
     13          7           0        7.106630    3.395660   -0.022440
     14          6           0        6.540640    2.382750   -0.022980
     15          1           0        3.886160    2.020840   -0.023870
     16          1           0        7.659740   -0.030970   -0.023880
     17          1           0        2.806140   -2.755640   -0.024440
     18          1           0        4.174280   -4.791310   -0.024480
     19          1           0        7.752550   -2.470320   -0.024420
 ---------------------------------------------------------------------
                    Distance matrix (angstroms):
                    1          2          3          4          5
     1  N    0.000000
     2  C    1.160628   0.000000
     3  C    2.597240   1.436651   0.000000
     4  C    3.475650   2.431914   1.404760   0.000000
     5  C    4.820173   3.719772   2.427688   1.394306   0.000000
     6  C    5.388051   4.228169   2.792461   2.411872   1.396551
     7  C    4.889794   3.767213   2.434984   2.809354   2.438226
     8  C    3.556428   2.492723   1.420710   2.456943   2.836022
     9  C    3.730390   2.967312   2.507845   3.779252   4.252073
    10  C    5.100158   4.364334   3.778130   4.910783   5.086246
    11  C    6.080663   5.177129   4.249188   5.082840   4.870688
    12  C    5.991090   4.935054   3.725061   4.212995   3.714969
    13  N    6.870460   5.919228   4.857379   3.515112   2.594264
    14  C    5.898812   4.886214   3.742426   2.455088   1.433957
    15  H    3.426204   2.636806   2.165793   1.090732   2.155342
    16  H    6.478118   5.318458   3.882945   3.396079   2.150732
    17  H    3.127658   2.679648   2.788364   4.183254   4.932383
    18  H    5.578929   5.021076   4.665866   5.887410   6.150692
    19  H    6.991024   5.900411   4.605840   4.853217   4.070915
                    6          7          8          9         10
     6  C    0.000000
     7  C    1.404002   0.000000
     8  C    2.445260   1.418023   0.000000
     9  C    3.719269   2.426520   1.417369   0.000000
    10  C    4.209749   2.805926   2.455138   1.397450   0.000000
    11  C    3.709613   2.432803   2.829433   2.410919   1.386848
    12  C    2.430471   1.403770   2.443585   2.778652   2.404828
    13  N    3.504897   4.854060   5.430206   6.845684   7.617949
    14  C    2.450814   3.745249   4.269944   5.685663   6.480195
    15  H    3.400741   3.900086   3.442776   4.668442   5.888493
    16  H    1.090505   2.163151   3.432194   4.588316   4.833312
    17  H    4.624888   3.428727   2.188943   1.089898   2.132361
    18  H    5.296178   3.892413   3.439525   2.162389   1.086505
    19  H    2.677765   2.173149   3.436182   3.865947   3.377249
                   11         12         13         14         15
    11  C    0.000000
    12  C    1.391308   0.000000
    13  N    7.214411   5.908662   0.000000
    14  C    6.142663   4.880830   1.160315   0.000000
    15  H    6.149888   5.303715   3.501651   2.679038   0.000000
    16  H    4.046747   2.658548   3.470983   2.660532   4.295327
    17  H    3.380362   3.867762   7.505512   6.352129   4.897061
    18  H    2.141923   3.386876   8.696273   7.554257   6.818240
    19  H    2.131448   1.087655   5.901435   5.002101   5.926170
                   16         17         18         19
    16  H    0.000000
    17  H    5.566081   0.000000
    18  H    5.899938   2.452705   0.000000
    19  H    2.441115   4.954632   4.265092   0.000000
 Stoichiometry    C12H5N2(1-)
 Framework group  C1[X(C12H5N2)]
 Deg. of freedom    51
 Full point group                 C1      NOp   1
 Largest Abelian subgroup         C1      NOp   1
 Largest concise Abelian subgroup C1      NOp   1
                         Standard orientation:                         
 ---------------------------------------------------------------------
 Center     Atomic      Atomic             Coordinates (Angstroms)
 Number     Number       Type             X           Y           Z
 ---------------------------------------------------------------------
      1          7           0       -0.756527    3.734348   -0.000088
      2          6           0       -0.415857    2.624843   -0.000114
      3          6           0        0.021005    1.256224   -0.000129
      4          6           0        1.404393    1.012113   -0.000144
      5          6           0        1.887892   -0.295678   -0.000105
      6          6           0        0.987851   -1.363517   -0.000241
      7          6           0       -0.398618   -1.142330   -0.000147
      8          6           0       -0.907759    0.181137    0.000012
      9          6           0       -2.315580    0.345372    0.000327
     10          6           0       -3.177615   -0.754520    0.000328
     11          6           0       -2.659390   -2.040907   -0.000090
     12          6           0       -1.281505   -2.233697   -0.000220
     13          7           0        4.440333   -0.759633    0.000383
     14          6           0        3.299316   -0.548888    0.000162
     15          1           0        2.104159    1.848786   -0.000205
     16          1           0        1.372802   -2.383819   -0.000391
     17          1           0       -2.766166    1.337768    0.000462
     18          1           0       -4.254680   -0.611612    0.000644
     19          1           0       -0.907551   -3.255045   -0.000407
 ---------------------------------------------------------------------
 Rotational constants (GHZ):      1.0100092      0.6089659      0.3799077
 Standard basis: STO-3G (5D, 7F)
 There are    75 symmetry adapted cartesian basis functions of A   symmetry.
 There are    75 symmetry adapted basis functions of A   symmetry.
    75 basis functions,   225 primitive gaussians,    75 cartesian basis functions
    46 alpha electrons       46 beta electrons
       nuclear repulsion energy       709.2625220089 Hartrees.
 NAtoms=   19 NActive=   19 NUniq=   19 SFac= 1.00D+00 NAtFMM=   60 NAOKFM=F Big=F
 Integral buffers will be    131072 words long.
 Raffenetti 2 integral format.
 Two-electron integral symmetry is turned on.
 One-electron integrals computed using PRISM.
 NBasis=    75 RedAO= T EigKep=  1.55D-01  NBF=    75
 NBsUse=    75 1.00D-06 EigRej= -1.00D+00 NBFU=    75
 ExpMin= 1.69D-01 ExpMax= 9.91D+01 ExpMxC= 9.91D+01 IAcc=1 IRadAn=         1 AccDes= 0.00D+00
 Harris functional with IExCor=  402 and IRadAn=       1 diagonalized for initial guess.
 HarFok:  IExCor=  402 AccDes= 0.00D+00 IRadAn=         1 IDoV= 1 UseB2=F ITyADJ=14
 ICtDFT=  3500011 ScaDFX=  1.000000  1.000000  1.000000  1.000000
 FoFCou: FMM=F IPFlag=           0 FMFlag=      100000 FMFlg1=           0
         NFxFlg=           0 DoJE=T BraDBF=F KetDBF=T FulRan=T
         wScrn=  0.000000 ICntrl=     500 IOpCl=  0 I1Cent=   200000004 NGrid=           0
         NMat0=    1 NMatS0=      1 NMatT0=    0 NMatD0=    1 NMtDS0=    0 NMtDT0=    0
 Petite list used in FoFCou.
 Keep R1 ints in memory in canonical form, NReq=4993994.
 Requested convergence on RMS density matrix=1.00D-08 within 128 cycles.
 Requested convergence on MAX density matrix=1.00D-06.
 Requested convergence on             energy=1.00D-06.
 No special actions if energy rises.
 Integral accuracy reduced to 1.0D-05 until final iterations.
 EnCoef did    12 forward-backward iterations
 EnCoef did     3 forward-backward iterations
 EnCoef did   100 forward-backward iterations
 EnCoef did   100 forward-backward iterations
 EnCoef did   100 forward-backward iterations
 Rare condition: small coef for last iteration: -0.101D-14
 EnCoef did   100 forward-backward iterations
 Rare condition: small coef for last iteration:  0.000D+00
 EnCoef did   100 forward-backward iterations
 Rare condition: small coef for last iteration:  0.989D-16
 EnCoef did   100 forward-backward iterations
 Rare condition: small coef for last iteration:  0.000D+00
 Initial convergence to 1.0D-05 achieved.  Increase integral accuracy.
 EnCoef did     5 forward-backward iterations
 EnCoef did     5 forward-backward iterations
 Rare condition: small coef for last iteration: -0.222D-15
 EnCoef did     6 forward-backward iterations
 EnCoef did     6 forward-backward iterations
 EnCoef did     6 forward-backward iterations
 EnCoef did     6 forward-backward iterations
 EnCoef did   100 forward-backward iterations
 Rare condition: small coef for last iteration:  0.000D+00
 EnCoef did     2 forward-backward iterations
 Rare condition: small coef for last iteration:  0.000D+00
 EnCoef did   100 forward-backward iterations
 SCF Done:  E(RB3LYP) =  -562.474651933     A.U. after   41 cycles
            NFock= 41  Conv=0.52D-08     -V/T= 2.0130

 **********************************************************************

            Population analysis using the SCF density.

 **********************************************************************

 Orbital symmetries:
       Occupied  (A) (A) (A) (A) (A) (A) (A) (A) (A) (A) (A) (A)
                 (A) (A) (A) (A) (A) (A) (A) (A) (A) (A) (A) (A)
                 (A) (A) (A) (A) (A) (A) (A) (A) (A) (A) (A) (A)
                 (A) (A) (A) (A) (A) (A) (A) (A) (A) (A)
       Virtual   (A) (A) (A) (A) (A) (A) (A) (A) (A) (A) (A) (A)
                 (A) (A) (A) (A) (A) (A) (A) (A) (A) (A) (A) (A)
                 (A) (A) (A) (A) (A)
 The electronic state is 1-A.
 Alpha  occ. eigenvalues --  -13.99519 -13.98661  -9.90467  -9.90220  -9.90011
 Alpha  occ. eigenvalues --   -9.89450  -9.88582  -9.86930  -9.86923  -9.86103
 Alpha  occ. eigenvalues --   -9.83249  -9.81192  -9.79639  -9.67193  -0.74813
 Alpha  occ. eigenvalues --   -0.73986  -0.69006  -0.62518  -0.59896  -0.54975
 Alpha  occ. eigenvalues --   -0.51069  -0.46025  -0.44123  -0.40114  -0.35578
 Alpha  occ. eigenvalues --   -0.32628  -0.30387  -0.29173  -0.24160  -0.23725
 Alpha  occ. eigenvalues --   -0.22639  -0.21114  -0.19570  -0.18951  -0.18198
 Alpha  occ. eigenvalues --   -0.15835  -0.15772  -0.15371  -0.14273  -0.14061
 Alpha  occ. eigenvalues --   -0.11324  -0.10876  -0.07768  -0.02859   0.01198
 Alpha  occ. eigenvalues --    0.13022
 Alpha virt. eigenvalues --    0.16222   0.20398   0.26641   0.27102   0.28137
 Alpha virt. eigenvalues --    0.29741   0.35299   0.40019   0.44203   0.47702
 Alpha virt. eigenvalues --    0.48226   0.52764   0.55951   0.58456   0.59544
 Alpha virt. eigenvalues --    0.60320   0.64966   0.65525   0.70704   0.72862
 Alpha virt. eigenvalues --    0.74293   0.78991   0.80833   0.85717   0.88504
 Alpha virt. eigenvalues --    0.98526   0.99423   1.13935   1.14742
          Condensed to atoms (all electrons):
               1          2          3          4          5          6
     1  N    6.582376   0.685096  -0.011438  -0.000235  -0.000001   0.000000
     2  C    0.685096   4.892248   0.430732  -0.033497   0.001025   0.000024
     3  C   -0.011438   0.430732   4.770430   0.505850  -0.030406  -0.010880
     4  C   -0.000235  -0.033497   0.505850   4.829257   0.488682  -0.032212
     5  C   -0.000001   0.001025  -0.030406   0.488682   4.761117   0.495240
     6  C    0.000000   0.000024  -0.010880  -0.032212   0.495240   4.851099
     7  C   -0.000002   0.000949  -0.029035  -0.010291  -0.028811   0.480075
     8  C   -0.000028  -0.028560   0.462710  -0.028483  -0.008901  -0.028706
     9  C   -0.000097  -0.004093  -0.028543   0.000760   0.000038   0.001004
    10  C    0.000000   0.000016   0.000801  -0.000008   0.000000   0.000038
    11  C    0.000000   0.000000   0.000015   0.000000  -0.000013   0.001062
    12  C    0.000000  -0.000007   0.000936   0.000048   0.000959  -0.033609
    13  N    0.000000   0.000000  -0.000001  -0.000124  -0.011589  -0.000171
    14  C    0.000000  -0.000007   0.000983  -0.031405   0.429759  -0.031172
    15  H    0.000053  -0.004090  -0.024627   0.390423  -0.025656   0.001439
    16  H    0.000000   0.000001   0.000043   0.001450  -0.027159   0.390512
    17  H   -0.000172   0.001286  -0.003494   0.000014  -0.000001  -0.000019
    18  H    0.000000  -0.000001  -0.000018   0.000000   0.000000   0.000002
    19  H    0.000000   0.000000  -0.000021  -0.000002   0.000016  -0.004225
               7          8          9         10         11         12
     1  N   -0.000002  -0.000028  -0.000097   0.000000   0.000000   0.000000
     2  C    0.000949  -0.028560  -0.004093   0.000016   0.000000  -0.000007
     3  C   -0.029035   0.462710  -0.028543   0.000801   0.000015   0.000936
     4  C   -0.010291  -0.028483   0.000760  -0.000008   0.000000   0.000048
     5  C   -0.028811  -0.008901   0.000038   0.000000  -0.000013   0.000959
     6  C    0.480075  -0.028706   0.001004   0.000038   0.001062  -0.033609
     7  C    4.795143   0.465566  -0.030609  -0.011782  -0.027325   0.470240
     8  C    0.465566   4.788481   0.491049  -0.028341  -0.011298  -0.031588
     9  C   -0.030609   0.491049   4.869236   0.498309  -0.028961  -0.013553
    10  C   -0.011782  -0.028341   0.498309   4.867705   0.468797  -0.030863
    11  C   -0.027325  -0.011298  -0.028961   0.468797   5.371099   0.494833
    12  C    0.470240  -0.031588  -0.013553  -0.030863   0.494833   4.896324
    13  N   -0.000001   0.000000   0.000000   0.000000   0.000000   0.000000
    14  C    0.001004   0.000012   0.000000   0.000000   0.000000  -0.000008
    15  H    0.000045   0.001279  -0.000017   0.000000   0.000000   0.000001
    16  H   -0.025337   0.001389  -0.000021   0.000001   0.000037  -0.004536
    17  H    0.001361  -0.025940   0.382628  -0.027456   0.001648   0.000090
    18  H   -0.000033   0.001307  -0.031645   0.386501  -0.035305   0.002055
    19  H   -0.031268   0.001277  -0.000016   0.002054  -0.035805   0.387696
              13         14         15         16         17         18
     1  N    0.000000   0.000000   0.000053   0.000000  -0.000172   0.000000
     2  C    0.000000  -0.000007  -0.004090   0.000001   0.001286  -0.000001
     3  C   -0.000001   0.000983  -0.024627   0.000043  -0.003494  -0.000018
     4  C   -0.000124  -0.031405   0.390423   0.001450   0.000014   0.000000
     5  C   -0.011589   0.429759  -0.025656  -0.027159  -0.000001   0.000000
     6  C   -0.000171  -0.031172   0.001439   0.390512  -0.000019   0.000002
     7  C   -0.000001   0.001004   0.000045  -0.025337   0.001361  -0.000033
     8  C    0.000000   0.000012   0.001279   0.001389  -0.025940   0.001307
     9  C    0.000000   0.000000  -0.000017  -0.000021   0.382628  -0.031645
    10  C    0.000000   0.000000   0.000000   0.000001  -0.027456   0.386501
    11  C    0.000000   0.000000   0.000000   0.000037   0.001648  -0.035305
    12  C    0.000000  -0.000008   0.000001  -0.004536   0.000090   0.002055
    13  N    6.579196   0.686851   0.000067   0.000065   0.000000   0.000000
    14  C    0.686851   4.894461  -0.003839  -0.003889   0.000000   0.000000
    15  H    0.000067  -0.003839   0.595246  -0.000040  -0.000001   0.000000
    16  H    0.000065  -0.003889  -0.000040   0.600906   0.000001   0.000000
    17  H    0.000000   0.000000  -0.000001   0.000001   0.626722  -0.003407
    18  H    0.000000   0.000000   0.000000   0.000000  -0.003407   0.648570
    19  H    0.000000  -0.000001   0.000000   0.001205   0.000004  -0.000017
              19
     1  N    0.000000
     2  C    0.000000
     3  C   -0.000021
     4  C   -0.000002
     5  C    0.000016
     6  C   -0.004225
     7  C   -0.031268
     8  C    0.001277
     9  C   -0.000016
    10  C    0.002054
    11  C   -0.035805
    12  C    0.387696
    13  N    0.000000
    14  C   -0.000001
    15  H    0.000000
    16  H    0.001205
    17  H    0.000004
    18  H   -0.000017
    19  H    0.650986
 Mulliken charges:
               1
     1  N   -0.255552
     2  C    0.058879
     3  C   -0.034038
     4  C   -0.080228
     5  C   -0.044299
     6  C   -0.079502
     7  C   -0.019888
     8  C   -0.021224
     9  C   -0.105470
    10  C   -0.125771
    11  C   -0.198784
    12  C   -0.139017
    13  N   -0.254292
    14  C    0.057253
    15  H    0.069717
    16  H    0.065373
    17  H    0.046735
    18  H    0.031990
    19  H    0.028117
 Sum of Mulliken charges =  -1.00000
 Mulliken charges with hydrogens summed into heavy atoms:
               1
     1  N   -0.255552
     2  C    0.058879
     3  C   -0.034038
     4  C   -0.010511
     5  C   -0.044299
     6  C   -0.014128
     7  C   -0.019888
     8  C   -0.021224
     9  C   -0.058735
    10  C   -0.093781
    11  C   -0.198784
    12  C   -0.110900
    13  N   -0.254292
    14  C    0.057253
 Electronic spatial extent (au):  <R**2>=           2691.8810
 Charge=             -1.0000 electrons
 Dipole moment (field-independent basis, Debye):
    X=              1.9862    Y=              1.1499    Z=              0.0171  Tot=              2.2951
 Quadrupole moment (field-independent basis, Debye-Ang):
   XX=           -117.7745   YY=           -103.4209   ZZ=            -74.1103
   XY=             -3.9101   XZ=             -0.1602   YZ=             -0.2308
 Traceless Quadrupole moment (field-independent basis, Debye-Ang):
   XX=            -19.3393   YY=             -4.9857   ZZ=             24.3250
   XY=             -3.9101   XZ=             -0.1602   YZ=             -0.2308
 Octapole moment (field-independent basis, Debye-Ang**2):
  XXX=            -75.0784  YYY=            -51.0263  ZZZ=              0.0218  XYY=             53.4416
  XXY=             62.6078  XXZ=              0.3032  XZZ=              4.0060  YZZ=              3.1576
  YYZ=              0.8496  XYZ=              0.8355
 Hexadecapole moment (field-independent basis, Debye-Ang**3):
 XXXX=          -2898.0479 YYYY=          -1690.6282 ZZZZ=            -58.3013 XXXY=             -7.4340
 XXXZ=             -0.6819 YYYX=            -19.8651 YYYZ=             -2.1877 ZZZX=             -0.1094
 ZZZY=             -0.1517 XXYY=           -678.1363 XXZZ=           -360.0119 YYZZ=           -223.6053
 XXYZ=             -2.0715 YYXZ=             -2.4317 ZZXY=             -6.3441
 N-N= 7.092625220089D+02 E-N=-2.740336372252D+03  KE= 5.552739123886D+02
 Calling FoFJK, ICntrl=      2127 FMM=F ISym2X=0 I1Cent= 0 IOpClX= 0 NMat=1 NMatS=1 NMatT=0.
 ***** Axes restored to original set *****
 -------------------------------------------------------------------
 Center     Atomic                   Forces (Hartrees/Bohr)
 Number     Number              X              Y              Z
 -------------------------------------------------------------------
      1        7          -0.105794954    0.003562614   -0.000363376
      2        6           0.088058794   -0.005316810    0.000649252
      3        6          -0.005007259    0.027795133   -0.000189527
      4        6          -0.028479881    0.000421329    0.001700449
      5        6           0.015421456    0.001661469   -0.004013422
      6        6           0.011494278    0.013495817    0.001475828
      7        6           0.029341096    0.010758992    0.012507270
      8        6          -0.018570674   -0.025244275    0.002074656
      9        6          -0.018448453   -0.014526367   -0.011934981
     10        6          -0.010257935    0.027372620    0.003679275
     11        6           0.056071534   -0.038059282   -0.010758732
     12        6          -0.013511307   -0.035529915    0.004534884
     13        7           0.051229066    0.091327360    0.000823834
     14        6          -0.042107934   -0.071405613   -0.002619250
     15        1          -0.003254364    0.003934988    0.000204480
     16        1           0.005497262   -0.001275154    0.002603151
     17        1          -0.010042768    0.009228995   -0.003162064
     18        1          -0.013169921   -0.009564107    0.009940047
     19        1           0.011531963    0.011362204   -0.007151774
 -------------------------------------------------------------------
 Cartesian Forces:  Max     0.105794954 RMS     0.029561341

 GradGradGradGradGradGradGradGradGradGradGradGradGradGradGradGradGradGrad
 Berny optimization.
 FormGI is forming the generalized inverse of G from B-inverse, IUseBI=4.
 Internal  Forces:  Max     0.105854033 RMS     0.020025330
 Search for a local minimum.
 Step number   1 out of a maximum of  102
 All quantities printed in internal units (Hartrees-Bohrs-Radians)
 Mixed Optimization -- RFO/linear search
 Second derivative matrix not updated -- first step.
 ITU=  0
     Eigenvalues ---    0.01604   0.01604   0.01870   0.01879   0.01920
     Eigenvalues ---    0.01947   0.01990   0.02018   0.02046   0.02080
     Eigenvalues ---    0.02089   0.02093   0.02120   0.02150   0.02163
     Eigenvalues ---    0.02199   0.04862   0.04862   0.16000   0.16000
     Eigenvalues ---    0.16000   0.16000   0.16000   0.22396   0.23218
     Eigenvalues ---    0.23490   0.23598   0.24617   0.25000   0.25000
     Eigenvalues ---    0.25000   0.34728   0.34754   0.34824   0.35085
     Eigenvalues ---    0.35220   0.38440   0.40048   0.40227   0.40426
     Eigenvalues ---    0.40845   0.42908   0.43599   0.44902   0.45130
     Eigenvalues ---    0.45593   0.46087   0.46203   0.47329   1.27383
     Eigenvalues ---    1.27588
 RFO step:  Lambda=-5.53587257D-02 EMin= 1.60393114D-02
 Linear search not attempted -- first point.
 Maximum step size (   0.300) exceeded in Quadratic search.
    -- Step size scaled by   0.950
 Iteration  1 RMS(Cart)=  0.05792075 RMS(Int)=  0.00180268
 Iteration  2 RMS(Cart)=  0.00220726 RMS(Int)=  0.00069103
 Iteration  3 RMS(Cart)=  0.00000338 RMS(Int)=  0.00069102
 Iteration  4 RMS(Cart)=  0.00000000 RMS(Int)=  0.00069102
 Variable       Old X    -DE/DX   Delta X   Delta X   Delta X     New X
                                 (Linear)    (Quad)   (Total)
    R1        2.19327   0.10585   0.00000   0.07563   0.07563   2.26890
    R2        2.71488   0.01770   0.00000   0.03688   0.03688   2.75176
    R3        2.65461   0.00627   0.00000   0.01084   0.01073   2.66534
    R4        2.68475   0.03596   0.00000   0.07096   0.07089   2.75564
    R5        2.63486   0.03599   0.00000   0.06498   0.06493   2.69978
    R6        2.06118   0.00505   0.00000   0.01192   0.01192   2.07310
    R7        2.63910   0.02401   0.00000   0.04440   0.04447   2.68357
    R8        2.70979   0.02185   0.00000   0.04514   0.04514   2.75493
    R9        2.65318   0.03209   0.00000   0.06130   0.06142   2.71460
   R10        2.06076   0.00545   0.00000   0.01285   0.01285   2.07360
   R11        2.67968   0.03920   0.00000   0.07804   0.07800   2.75768
   R12        2.65274   0.03954   0.00000   0.07549   0.07578   2.72852
   R13        2.67844   0.00607   0.00000   0.01092   0.01056   2.68899
   R14        2.64080   0.01473   0.00000   0.02597   0.02570   2.66650
   R15        2.05961   0.00908   0.00000   0.02136   0.02136   2.08097
   R16        2.62076   0.04865   0.00000   0.08627   0.08634   2.70710
   R17        2.05320   0.01441   0.00000   0.03357   0.03357   2.08677
   R18        2.62919   0.01491   0.00000   0.02778   0.02815   2.65734
   R19        2.05537   0.01180   0.00000   0.02759   0.02759   2.08296
   R20        2.19268   0.10471   0.00000   0.07470   0.07470   2.26738
    A1        2.05443   0.00161   0.00000   0.00628   0.00640   2.06083
    A2        2.12011  -0.00295   0.00000  -0.00788  -0.00777   2.11234
    A3        2.10864   0.00134   0.00000   0.00161   0.00133   2.10997
    A4        2.09958   0.00183   0.00000   0.00292   0.00266   2.10224
    A5        2.09266  -0.00167   0.00000  -0.00478  -0.00467   2.08799
    A6        2.09094  -0.00016   0.00000   0.00187   0.00198   2.09293
    A7        2.08714   0.00088   0.00000   0.00186   0.00180   2.08894
    A8        2.10243  -0.00248   0.00000  -0.00728  -0.00726   2.09517
    A9        2.09362   0.00160   0.00000   0.00542   0.00544   2.09906
   A10        2.11293   0.00250   0.00000   0.01062   0.01071   2.12364
   A11        2.08048   0.00025   0.00000   0.00132   0.00125   2.08173
   A12        2.08977  -0.00275   0.00000  -0.01194  -0.01201   2.07777
   A13        2.09625  -0.00863   0.00000  -0.02496  -0.02508   2.07116
   A14        2.09279   0.01438   0.00000   0.04309   0.04268   2.13547
   A15        2.09415  -0.00575   0.00000  -0.01813  -0.01874   2.07541
   A16        2.06184   0.00208   0.00000   0.00796   0.00835   2.07019
   A17        2.16717  -0.00302   0.00000  -0.00815  -0.00761   2.15956
   A18        2.05418   0.00094   0.00000   0.00020  -0.00075   2.05343
   A19        2.11941  -0.00349   0.00000  -0.01761  -0.01909   2.10033
   A20        2.11314  -0.00874   0.00000  -0.03741  -0.03711   2.07603
   A21        2.05064   0.01223   0.00000   0.05503   0.05537   2.10601
   A22        2.09388   0.02275   0.00000   0.07414   0.07323   2.16711
   A23        2.10363  -0.01915   0.00000  -0.07135  -0.07089   2.03274
   A24        2.08567  -0.00360   0.00000  -0.00279  -0.00234   2.08334
   A25        2.09277  -0.02856   0.00000  -0.08944  -0.08943   2.00335
   A26        2.11197   0.01410   0.00000   0.05084   0.05082   2.16279
   A27        2.11043  -0.01844   0.00000  -0.07564  -0.07586   2.03456
   A28        2.06079   0.00434   0.00000   0.02480   0.02445   2.08524
   A29        3.15266   0.00108   0.00000   0.01434   0.01434   3.16700
   A30        3.13646  -0.00037   0.00000  -0.00342  -0.00342   3.13304
   A31        3.14161  -0.00075   0.00000  -0.00996  -0.00996   3.13165
   A32        3.14160   0.00138   0.00000   0.01257   0.01257   3.15417
    D1        3.14155   0.00083   0.00000   0.01036   0.01010  -3.13153
    D2       -0.00006   0.00011   0.00000   0.00139   0.00129   0.00123
    D3        0.00007   0.00003   0.00000   0.00015   0.00004   0.00011
    D4       -3.14154  -0.00069   0.00000  -0.00882  -0.00877   3.13287
    D5        3.14148   0.00030   0.00000   0.00388   0.00408  -3.13762
    D6       -0.00013   0.00062   0.00000   0.00796   0.00742   0.00729
    D7       -0.00023   0.00114   0.00000   0.01448   0.01444   0.01422
    D8        3.14135   0.00145   0.00000   0.01856   0.01778  -3.12406
    D9        0.00016  -0.00145   0.00000  -0.01790  -0.01777  -0.01761
   D10       -3.14136  -0.00096   0.00000  -0.01183  -0.01176   3.13006
   D11       -3.14142  -0.00072   0.00000  -0.00894  -0.00893   3.13284
   D12        0.00025  -0.00023   0.00000  -0.00287  -0.00293  -0.00268
   D13       -0.00022   0.00168   0.00000   0.02093   0.02103   0.02081
   D14        3.14140   0.00085   0.00000   0.01057   0.01045  -3.13134
   D15        3.14130   0.00120   0.00000   0.01489   0.01501  -3.12688
   D16       -0.00026   0.00037   0.00000   0.00453   0.00443   0.00417
   D17        0.00006  -0.00049   0.00000  -0.00601  -0.00633  -0.00626
   D18       -3.14154  -0.00462   0.00000  -0.05809  -0.05828   3.08336
   D19       -3.14156   0.00034   0.00000   0.00441   0.00424  -3.13733
   D20        0.00002  -0.00379   0.00000  -0.04767  -0.04772  -0.04770
   D21        0.00016  -0.00091   0.00000  -0.01154  -0.01122  -0.01106
   D22       -3.14141  -0.00120   0.00000  -0.01535  -0.01436   3.12742
   D23       -3.14143   0.00323   0.00000   0.04058   0.03892  -3.10251
   D24        0.00019   0.00294   0.00000   0.03677   0.03578   0.03597
   D25        3.14156   0.00006   0.00000   0.00055   0.00127  -3.14036
   D26       -0.00006  -0.00304   0.00000  -0.03755  -0.03598  -0.03605
   D27       -0.00004  -0.00407   0.00000  -0.05146  -0.05081  -0.05085
   D28        3.14152  -0.00717   0.00000  -0.08957  -0.08806   3.05346
   D29        3.14149   0.00240   0.00000   0.02990   0.02860  -3.11310
   D30        0.00002  -0.00117   0.00000  -0.01476  -0.01481  -0.01479
   D31       -0.00012   0.00271   0.00000   0.03396   0.03191   0.03178
   D32        3.14159  -0.00086   0.00000  -0.01070  -0.01150   3.13009
   D33       -0.00009  -0.00735   0.00000  -0.09150  -0.09361  -0.09370
   D34        3.14152  -0.00741   0.00000  -0.09180  -0.09259   3.04893
   D35        3.14138  -0.00390   0.00000  -0.04839  -0.04946   3.09193
   D36       -0.00020  -0.00397   0.00000  -0.04868  -0.04843  -0.04863
   D37        0.00024   0.00620   0.00000   0.07661   0.07743   0.07767
   D38       -3.14136   0.00626   0.00000   0.07690   0.07638  -3.06498
   D39       -0.00018  -0.00054   0.00000  -0.00581  -0.00404  -0.00422
   D40        3.14144   0.00247   0.00000   0.03124   0.03423  -3.10751
         Item               Value     Threshold  Converged?
 Maximum Force            0.105854     0.000450     NO 
 RMS     Force            0.020025     0.000300     NO 
 Maximum Displacement     0.206526     0.001800     NO 
 RMS     Displacement     0.057500     0.001200     NO 
 Predicted change in Energy=-3.172974D-02
 GradGradGradGradGradGradGradGradGradGradGradGradGradGradGradGradGradGrad

                          Input orientation:                          
 ---------------------------------------------------------------------
 Center     Atomic      Atomic             Coordinates (Angstroms)
 Number     Number       Type             X           Y           Z
 ---------------------------------------------------------------------
      1          7           0        1.101597   -0.073489   -0.058401
      2          6           0        2.301276   -0.115354   -0.034275
      3          6           0        3.757298   -0.129025   -0.018888
      4          6           0        4.432793    1.109132   -0.016068
      5          6           0        5.860722    1.154853   -0.013575
      6          6           0        6.603120   -0.055529    0.007781
      7          6           0        5.955605   -1.337804    0.001716
      8          6           0        4.497235   -1.385569   -0.019183
      9          6           0        3.878701   -2.666843   -0.042702
     10          6           0        4.664383   -3.838368   -0.006654
     11          6           0        6.096008   -3.848779   -0.056653
     12          6           0        6.695408   -2.576753   -0.047824
     13          7           0        7.125925    3.491991   -0.022486
     14          6           0        6.549886    2.439468   -0.025224
     15          1           0        3.855534    2.041979   -0.024213
     16          1           0        7.699514   -0.012379    0.019382
     17          1           0        2.779204   -2.727901   -0.047666
     18          1           0        4.118011   -4.795414    0.063737
     19          1           0        7.792362   -2.493596   -0.116733
 ---------------------------------------------------------------------
                    Distance matrix (angstroms):
                    1          2          3          4          5
     1  N    0.000000
     2  C    1.200652   0.000000
     3  C    2.656576   1.456168   0.000000
     4  C    3.535146   2.458264   1.410438   0.000000
     5  C    4.915294   3.779354   2.464298   1.428664   0.000000
     6  C    5.501950   4.302465   2.846895   2.463194   1.420083
     7  C    5.016323   3.853544   2.508809   2.882147   2.494509
     8  C    3.640529   2.536910   1.458221   2.495536   2.883206
     9  C    3.799742   2.999740   2.540832   3.816506   4.305185
    10  C    5.183670   4.409748   3.818662   4.952927   5.134543
    11  C    6.260747   5.323434   4.394037   5.229610   5.009346
    12  C    6.128390   5.036573   3.824225   4.325065   3.823971
    13  N    7.000462   6.024145   4.945646   3.595972   2.657636
    14  C    5.999993   4.957609   3.794172   2.500392   1.457847
    15  H    3.472830   2.658929   2.173232   1.097040   2.192689
    16  H    6.598659   5.399487   3.944127   3.454057   2.178226
    17  H    3.140125   2.655936   2.776986   4.178298   4.957085
    18  H    5.604484   5.021264   4.681039   5.913470   6.200702
    19  H    7.115241   5.984552   4.677874   4.927118   4.129534
                    6          7          8          9         10
     6  C    0.000000
     7  C    1.436503   0.000000
     8  C    2.490880   1.459301   0.000000
     9  C    3.774118   2.466140   1.422955   0.000000
    10  C    4.250738   2.814275   2.458520   1.411052   0.000000
    11  C    3.827539   2.515574   2.936815   2.512691   1.432535
    12  C    2.523525   1.443869   2.500340   2.818152   2.391324
    13  N    3.585965   4.969624   5.540814   6.962479   7.732633
    14  C    2.495784   3.823831   4.341005   5.762807   6.554899
    15  H    3.456847   3.979184   3.487103   4.708915   5.935742
    16  H    1.097304   2.190499   3.484498   4.652811   4.883738
    17  H    4.665509   3.467611   2.180435   1.101202   2.188314
    18  H    5.352140   3.916078   3.431870   2.144624   1.104271
    19  H    2.715505   2.173376   3.477801   3.918192   3.406579
                   11         12         13         14         15
    11  C    0.000000
    12  C    1.406204   0.000000
    13  N    7.412746   6.084048   0.000000
    14  C    6.304684   5.018382   1.199847   0.000000
    15  H    6.302523   5.422004   3.577429   2.723514   0.000000
    16  H    4.158723   2.754770   3.551249   2.708355   4.358723
    17  H    3.501091   3.919119   7.588259   6.396893   4.889866
    18  H    2.196152   3.402629   8.816806   7.633181   6.842994
    19  H    2.172037   1.102257   6.023311   5.087951   6.006547
                   16         17         18         19
    16  H    0.000000
    17  H    5.620321   0.000000
    18  H    5.975497   2.465649   0.000000
    19  H    2.486682   5.019105   4.339561   0.000000
 Stoichiometry    C12H5N2(1-)
 Framework group  C1[X(C12H5N2)]
 Deg. of freedom    51
 Full point group                 C1      NOp   1
 Largest Abelian subgroup         C1      NOp   1
 Largest concise Abelian subgroup C1      NOp   1
                         Standard orientation:                         
 ---------------------------------------------------------------------
 Center     Atomic      Atomic             Coordinates (Angstroms)
 Number     Number       Type             X           Y           Z
 ---------------------------------------------------------------------
      1          7           0       -0.713946    3.826361   -0.021217
      2          6           0       -0.386078    2.671521   -0.000937
      3          6           0        0.047168    1.281338    0.009734
      4          6           0        1.432767    1.017806    0.008710
      5          6           0        1.913909   -0.327399    0.006499
      6          6           0        0.989341   -1.405077    0.027052
      7          6           0       -0.429685   -1.181690    0.024799
      8          6           0       -0.922142    0.191913    0.008705
      9          6           0       -2.331373    0.388067   -0.011098
     10          6           0       -3.205654   -0.718943    0.023955
     11          6           0       -2.776930   -2.084728   -0.030685
     12          6           0       -1.382399   -2.265463   -0.025498
     13          7           0        4.526304   -0.815419   -0.009635
     14          6           0        3.347886   -0.589665   -0.009100
     15          1           0        2.143794    1.853200    0.001201
     16          1           0        1.366452   -2.435514    0.035030
     17          1           0       -2.726465    1.415952   -0.012405
     18          1           0       -4.283932   -0.492363    0.097396
     19          1           0       -0.967218   -3.283955   -0.098083
 ---------------------------------------------------------------------
 Rotational constants (GHZ):      0.9666890      0.5872917      0.3653784
 Standard basis: STO-3G (5D, 7F)
 There are    75 symmetry adapted cartesian basis functions of A   symmetry.
 There are    75 symmetry adapted basis functions of A   symmetry.
    75 basis functions,   225 primitive gaussians,    75 cartesian basis functions
    46 alpha electrons       46 beta electrons
       nuclear repulsion energy       695.7549050186 Hartrees.
 NAtoms=   19 NActive=   19 NUniq=   19 SFac= 1.00D+00 NAtFMM=   60 NAOKFM=F Big=F
 Integral buffers will be    131072 words long.
 Raffenetti 2 integral format.
 Two-electron integral symmetry is turned on.
 One-electron integrals computed using PRISM.
 NBasis=    75 RedAO= T EigKep=  1.75D-01  NBF=    75
 NBsUse=    75 1.00D-06 EigRej= -1.00D+00 NBFU=    75
 Initial guess from the checkpoint file:  "/tmp/bnp.472698.sequoia/Gau-16955.chk"
 B after Tr=     0.000000    0.000000    0.000000
         Rot=    0.999978    0.000014   -0.000024    0.006707 Ang=   0.77 deg.
 ExpMin= 1.69D-01 ExpMax= 9.91D+01 ExpMxC= 9.91D+01 IAcc=1 IRadAn=         1 AccDes= 0.00D+00
 Harris functional with IExCor=  402 and IRadAn=       1 diagonalized for initial guess.
 HarFok:  IExCor=  402 AccDes= 0.00D+00 IRadAn=         1 IDoV= 1 UseB2=F ITyADJ=14
 ICtDFT=  3500011 ScaDFX=  1.000000  1.000000  1.000000  1.000000
 FoFCou: FMM=F IPFlag=           0 FMFlag=      100000 FMFlg1=           0
         NFxFlg=           0 DoJE=T BraDBF=F KetDBF=T FulRan=T
         wScrn=  0.000000 ICntrl=     500 IOpCl=  0 I1Cent=   200000004 NGrid=           0
         NMat0=    1 NMatS0=      1 NMatT0=    0 NMatD0=    1 NMtDS0=    0 NMtDT0=    0
 Petite list used in FoFCou.
 Keep R1 ints in memory in canonical form, NReq=4993994.
 Requested convergence on RMS density matrix=1.00D-08 within 128 cycles.
 Requested convergence on MAX density matrix=1.00D-06.
 Requested convergence on             energy=1.00D-06.
 No special actions if energy rises.
 Integral accuracy reduced to 1.0D-05 until final iterations.
 Initial convergence to 1.0D-05 achieved.  Increase integral accuracy.
 SCF Done:  E(RB3LYP) =  -562.503772665     A.U. after   17 cycles
            NFock= 17  Conv=0.78D-08     -V/T= 2.0142
 Calling FoFJK, ICntrl=      2127 FMM=F ISym2X=0 I1Cent= 0 IOpClX= 0 NMat=1 NMatS=1 NMatT=0.
 ***** Axes restored to original set *****
 -------------------------------------------------------------------
 Center     Atomic                   Forces (Hartrees/Bohr)
 Number     Number              X              Y              Z
 -------------------------------------------------------------------
      1        7          -0.000500462   -0.000173814    0.000099260
      2        6          -0.001556628   -0.001056011   -0.000017863
      3        6           0.005938638    0.007216448    0.000095060
      4        6          -0.005706890   -0.004383332    0.000569049
      5        6           0.005421364   -0.004527277   -0.001807965
      6        6          -0.007721450    0.000327844    0.001498987
      7        6           0.010951943    0.009094025    0.005877477
      8        6          -0.002615445   -0.002590910    0.000264084
      9        6          -0.003117686   -0.009624169   -0.005411681
     10        6          -0.005548992    0.015350921    0.003231827
     11        6           0.014900673   -0.012320177   -0.005723161
     12        6          -0.011512780   -0.005347927    0.001358835
     13        7           0.000686262    0.001446506    0.000143839
     14        6          -0.001039420   -0.000871076   -0.001006771
     15        1           0.000363284    0.000697137    0.000227348
     16        1           0.001189670   -0.000153714    0.001428139
     17        1           0.000573734    0.002535666   -0.002175621
     18        1          -0.001580969   -0.000301608    0.004853913
     19        1           0.000875156    0.004681468   -0.003504756
 -------------------------------------------------------------------
 Cartesian Forces:  Max     0.015350921 RMS     0.005247401

 GradGradGradGradGradGradGradGradGradGradGradGradGradGradGradGradGradGrad
 Berny optimization.
 Using GEDIIS/GDIIS optimizer.
 FormGI is forming the generalized inverse of G from B-inverse, IUseBI=4.
 Internal  Forces:  Max     0.011300910 RMS     0.002760849
 Search for a local minimum.
 Step number   2 out of a maximum of  102
 All quantities printed in internal units (Hartrees-Bohrs-Radians)
 Mixed Optimization -- RFO/linear search
 Update second derivatives using D2CorX and points    1    2
 DE= -2.91D-02 DEPred=-3.17D-02 R= 9.18D-01
 TightC=F SS=  1.41D+00  RLast= 3.86D-01 DXNew= 5.0454D-01 1.1590D+00
 Trust test= 9.18D-01 RLast= 3.86D-01 DXMaxT set to 5.05D-01
 ITU=  1  0
 Use linear search instead of GDIIS.
     Eigenvalues ---    0.01604   0.01605   0.01871   0.01879   0.01921
     Eigenvalues ---    0.01958   0.02001   0.02021   0.02071   0.02081
     Eigenvalues ---    0.02093   0.02111   0.02124   0.02150   0.02174
     Eigenvalues ---    0.02243   0.04862   0.04864   0.15800   0.15990
     Eigenvalues ---    0.15999   0.15999   0.16064   0.21744   0.22618
     Eigenvalues ---    0.23466   0.23516   0.24586   0.24973   0.24999
     Eigenvalues ---    0.25041   0.34729   0.34745   0.34862   0.35091
     Eigenvalues ---    0.35247   0.38769   0.40027   0.40314   0.40542
     Eigenvalues ---    0.40836   0.42972   0.43601   0.44726   0.45332
     Eigenvalues ---    0.45612   0.46167   0.46910   0.49835   1.27482
     Eigenvalues ---    1.31691
 RFO step:  Lambda=-6.31027506D-03 EMin= 1.60393045D-02
 Quartic linear search produced a step of  0.17395.
 Iteration  1 RMS(Cart)=  0.05792059 RMS(Int)=  0.00258162
 Iteration  2 RMS(Cart)=  0.00334967 RMS(Int)=  0.00097330
 Iteration  3 RMS(Cart)=  0.00000635 RMS(Int)=  0.00097329
 Iteration  4 RMS(Cart)=  0.00000001 RMS(Int)=  0.00097329
 Variable       Old X    -DE/DX   Delta X   Delta X   Delta X     New X
                                 (Linear)    (Quad)   (Total)
    R1        2.26890   0.00049   0.01316  -0.01335  -0.00019   2.26871
    R2        2.75176   0.00205   0.00642  -0.00105   0.00536   2.75712
    R3        2.66534  -0.00541   0.00187  -0.01557  -0.01376   2.65158
    R4        2.75564   0.00083   0.01233  -0.01077   0.00143   2.75707
    R5        2.69978   0.00230   0.01129  -0.00638   0.00498   2.70476
    R6        2.07310   0.00040   0.00207  -0.00092   0.00115   2.07425
    R7        2.68357  -0.00406   0.00774  -0.01852  -0.01065   2.67291
    R8        2.75493   0.00035   0.00785  -0.00745   0.00040   2.75533
    R9        2.71460  -0.00434   0.01068  -0.02271  -0.01196   2.70264
   R10        2.07360   0.00120   0.00224   0.00151   0.00375   2.07735
   R11        2.75768   0.00158   0.01357  -0.01033   0.00333   2.76101
   R12        2.72852   0.00163   0.01318  -0.00963   0.00400   2.73251
   R13        2.68899  -0.00013   0.00184  -0.00266  -0.00116   2.68783
   R14        2.66650  -0.00431   0.00447  -0.01583  -0.01186   2.65464
   R15        2.08097  -0.00071   0.00372  -0.00632  -0.00261   2.07837
   R16        2.70710   0.01011   0.01502   0.00814   0.02302   2.73012
   R17        2.08677   0.00135   0.00584  -0.00193   0.00391   2.09069
   R18        2.65734   0.00191   0.00490  -0.00026   0.00499   2.66233
   R19        2.08296   0.00145   0.00480  -0.00048   0.00432   2.08728
   R20        2.26738   0.00160   0.01299  -0.01218   0.00082   2.26820
    A1        2.06083   0.00158   0.00111   0.00568   0.00698   2.06782
    A2        2.11234  -0.00232  -0.00135  -0.00927  -0.01043   2.10191
    A3        2.10997   0.00074   0.00023   0.00354   0.00337   2.11334
    A4        2.10224  -0.00097   0.00046  -0.00529  -0.00502   2.09722
    A5        2.08799   0.00118  -0.00081   0.00813   0.00740   2.09539
    A6        2.09293  -0.00021   0.00034  -0.00287  -0.00244   2.09048
    A7        2.08894   0.00047   0.00031   0.00112   0.00142   2.09036
    A8        2.09517  -0.00117  -0.00126  -0.00360  -0.00487   2.09029
    A9        2.09906   0.00070   0.00095   0.00246   0.00340   2.10246
   A10        2.12364   0.00119   0.00186   0.00267   0.00447   2.12812
   A11        2.08173  -0.00039   0.00022  -0.00125  -0.00109   2.08064
   A12        2.07777  -0.00081  -0.00209  -0.00158  -0.00373   2.07403
   A13        2.07116  -0.00064  -0.00436   0.00105  -0.00392   2.06724
   A14        2.13547   0.00290   0.00742   0.00560   0.01263   2.14810
   A15        2.07541  -0.00234  -0.00326  -0.00972  -0.01472   2.06069
   A16        2.07019  -0.00082   0.00145  -0.00372  -0.00164   2.06855
   A17        2.15956   0.00022  -0.00132   0.00412   0.00403   2.16359
   A18        2.05343   0.00060  -0.00013  -0.00037  -0.00239   2.05104
   A19        2.10033  -0.00150  -0.00332  -0.00890  -0.01580   2.08453
   A20        2.07603  -0.00196  -0.00646  -0.00637  -0.01235   2.06368
   A21        2.10601   0.00340   0.00963   0.01282   0.02315   2.12916
   A22        2.16711   0.00707   0.01274   0.01848   0.02790   2.19501
   A23        2.03274  -0.00483  -0.01233  -0.01153  -0.02230   2.01044
   A24        2.08334  -0.00225  -0.00041  -0.00697  -0.00584   2.07750
   A25        2.00335  -0.01130  -0.01556  -0.03751  -0.05559   1.94776
   A26        2.16279   0.00711   0.00884   0.02457   0.03201   2.19480
   A27        2.03456  -0.00831  -0.01320  -0.03610  -0.04886   1.98571
   A28        2.08524   0.00117   0.00425   0.01046   0.01495   2.10019
   A29        3.16700  -0.00044   0.00249  -0.02720  -0.02470   3.14230
   A30        3.13304   0.00021  -0.00060   0.00532   0.00472   3.13777
   A31        3.13165   0.00025  -0.00173   0.01576   0.01403   3.14567
   A32        3.15417   0.00026   0.00219   0.00263   0.00482   3.15898
    D1       -3.13153   0.00008   0.00176   0.00068   0.00233  -3.12920
    D2        0.00123  -0.00009   0.00023  -0.00389  -0.00369  -0.00246
    D3        0.00011  -0.00010   0.00001  -0.00451  -0.00464  -0.00453
    D4        3.13287  -0.00026  -0.00153  -0.00908  -0.01066   3.12221
    D5       -3.13762   0.00034   0.00071   0.01331   0.01424  -3.12338
    D6        0.00729   0.00011   0.00129   0.00547   0.00640   0.01369
    D7        0.01422   0.00050   0.00251   0.01856   0.02124   0.03546
    D8       -3.12406   0.00027   0.00309   0.01072   0.01340  -3.11066
    D9       -0.01761  -0.00061  -0.00309  -0.02122  -0.02428  -0.04189
   D10        3.13006  -0.00045  -0.00205  -0.01584  -0.01779   3.11227
   D11        3.13284  -0.00046  -0.00155  -0.01670  -0.01832   3.11452
   D12       -0.00268  -0.00030  -0.00051  -0.01132  -0.01184  -0.01452
   D13        0.02081   0.00093   0.00366   0.03310   0.03691   0.05772
   D14       -3.13134   0.00041   0.00182   0.01471   0.01665  -3.11468
   D15       -3.12688   0.00076   0.00261   0.02768   0.03035  -3.09653
   D16        0.00417   0.00025   0.00077   0.00930   0.01009   0.01426
   D17       -0.00626  -0.00049  -0.00110  -0.01854  -0.01967  -0.02593
   D18        3.08336  -0.00243  -0.01014  -0.08862  -0.09856   2.98481
   D19       -3.13733   0.00001   0.00074  -0.00020   0.00050  -3.13683
   D20       -0.04770  -0.00192  -0.00830  -0.07028  -0.07839  -0.12609
   D21       -0.01106  -0.00021  -0.00195  -0.00715  -0.00919  -0.02025
   D22        3.12742   0.00000  -0.00250   0.00023  -0.00185   3.12557
   D23       -3.10251   0.00150   0.00677   0.06003   0.06489  -3.03762
   D24        0.03597   0.00171   0.00622   0.06740   0.07223   0.10821
   D25       -3.14036  -0.00058   0.00022  -0.02828  -0.02827   3.11456
   D26       -0.03605  -0.00158  -0.00626  -0.06168  -0.06703  -0.10307
   D27       -0.05085  -0.00246  -0.00884  -0.09821  -0.10657  -0.15742
   D28        3.05346  -0.00346  -0.01532  -0.13162  -0.14533   2.90813
   D29       -3.11310   0.00144   0.00497   0.05817   0.06106  -3.05204
   D30       -0.01479  -0.00028  -0.00258  -0.00593  -0.00904  -0.02383
   D31        0.03178   0.00122   0.00555   0.05040   0.05329   0.08507
   D32        3.13009  -0.00050  -0.00200  -0.01369  -0.01681   3.11328
   D33       -0.09370  -0.00449  -0.01628  -0.15602  -0.17409  -0.26779
   D34        3.04893  -0.00389  -0.01611  -0.13490  -0.15151   2.89742
   D35        3.09193  -0.00261  -0.00860  -0.09032  -0.10033   2.99160
   D36       -0.04863  -0.00201  -0.00842  -0.06920  -0.07775  -0.12638
   D37        0.07767   0.00356   0.01347   0.12415   0.13848   0.21615
   D38       -3.06498   0.00294   0.01329   0.10245   0.11510  -2.94989
   D39       -0.00422   0.00018  -0.00070   0.00556   0.00681   0.00259
   D40       -3.10751   0.00139   0.00595   0.04079   0.04915  -3.05837
         Item               Value     Threshold  Converged?
 Maximum Force            0.011301     0.000450     NO 
 RMS     Force            0.002761     0.000300     NO 
 Maximum Displacement     0.316607     0.001800     NO 
 RMS     Displacement     0.058053     0.001200     NO 
 Predicted change in Energy=-3.633456D-03
 GradGradGradGradGradGradGradGradGradGradGradGradGradGradGradGradGradGrad

                          Input orientation:                          
 ---------------------------------------------------------------------
 Center     Atomic      Atomic             Coordinates (Angstroms)
 Number     Number       Type             X           Y           Z
 ---------------------------------------------------------------------
      1          7           0        1.102829   -0.115210   -0.088153
      2          6           0        2.303109   -0.119634   -0.063124
      3          6           0        3.761657   -0.124077   -0.026839
      4          6           0        4.434303    1.107262   -0.012801
      5          6           0        5.864964    1.144994    0.007363
      6          6           0        6.598604   -0.062964    0.064512
      7          6           0        5.956173   -1.340349    0.033457
      8          6           0        4.497016   -1.384181   -0.026936
      9          6           0        3.879586   -2.664534   -0.077198
     10          6           0        4.672724   -3.818385    0.036633
     11          6           0        6.109411   -3.872843   -0.105389
     12          6           0        6.680327   -2.584875   -0.099296
     13          7           0        7.127493    3.484186   -0.016945
     14          6           0        6.555589    2.428917   -0.015266
     15          1           0        3.864481    2.045233   -0.031363
     16          1           0        7.696387   -0.022505    0.105383
     17          1           0        2.780945   -2.712129   -0.095502
     18          1           0        4.116565   -4.754759    0.231278
     19          1           0        7.762416   -2.453528   -0.277745
 ---------------------------------------------------------------------
                    Distance matrix (angstroms):
                    1          2          3          4          5
     1  N    0.000000
     2  C    1.200549   0.000000
     3  C    2.659550   1.459006   0.000000
     4  C    3.549484   2.459633   1.403155   0.000000
     5  C    4.926983   3.780352   2.456747   1.431300   0.000000
     6  C    5.498143   4.297764   2.839075   2.461626   1.414445
     7  C    5.007065   3.852836   2.509751   2.882538   2.487152
     8  C    3.624161   2.532511   1.458977   2.492271   2.875618
     9  C    3.769557   2.993659   2.543692   3.812913   4.296671
    10  C    5.145214   4.393834   3.805520   4.931661   5.104647
    11  C    6.259870   5.345680   4.423953   5.255093   5.025052
    12  C    6.099825   5.023819   3.818299   4.322496   3.819439
    13  N    7.018355   6.021988   4.934421   3.592083   2.658268
    14  C    6.017515   4.957922   3.784702   2.499326   1.458059
    15  H    3.506774   2.669371   2.171750   1.097648   2.194051
    16  H    6.597049   5.396784   3.938261   3.454205   2.174114
    17  H    3.091944   2.636362   2.768487   4.162712   4.939549
    18  H    5.541665   4.985947   4.651430   5.875697   6.157444
    19  H    7.060721   5.941141   4.636310   4.881163   4.078109
                    6          7          8          9         10
     6  C    0.000000
     7  C    1.430173   0.000000
     8  C    2.484079   1.461064   0.000000
     9  C    3.765808   2.465345   1.422340   0.000000
    10  C    4.220543   2.790684   2.441366   1.404776   0.000000
    11  C    3.844913   2.540922   2.966380   2.536321   1.444717
    12  C    2.528546   1.445984   2.492740   2.801961   2.360190
    13  N    3.587287   4.964943   5.533579   6.954084   7.704304
    14  C    2.493529   3.816941   4.333310   5.753962   6.525080
    15  H    3.453854   3.980143   3.487262   4.710014   5.919451
    16  H    1.099289   2.184086   3.479604   4.645603   4.853450
    17  H    4.649537   3.461283   2.170955   1.099823   2.195470
    18  H    5.310487   3.883489   3.401796   2.126112   1.106343
    19  H    2.680746   2.144419   3.445178   3.893727   3.392325
                   11         12         13         14         15
    11  C    0.000000
    12  C    1.408845   0.000000
    13  N    7.427663   6.086069   0.000000
    14  C    6.318178   5.016047   1.200279   0.000000
    15  H    6.329993   5.419548   3.566236   2.718369   0.000000
    16  H    4.169894   2.764057   3.554642   2.706557   4.356345
    17  H    3.525059   3.901460   7.569211   6.378458   4.879616
    18  H    2.205121   3.374989   8.775392   7.590443   6.809729
    19  H    2.185540   1.104542   5.977256   5.036229   5.957638
                   16         17         18         19
    16  H    0.000000
    17  H    5.606781   0.000000
    18  H    5.935082   2.462316   0.000000
    19  H    2.461914   4.991507   4.341313   0.000000
 Stoichiometry    C12H5N2(1-)
 Framework group  C1[X(C12H5N2)]
 Deg. of freedom    51
 Full point group                 C1      NOp   1
 Largest Abelian subgroup         C1      NOp   1
 Largest concise Abelian subgroup C1      NOp   1
                         Standard orientation:                         
 ---------------------------------------------------------------------
 Center     Atomic      Atomic             Coordinates (Angstroms)
 Number     Number       Type             X           Y           Z
 ---------------------------------------------------------------------
      1          7           0       -0.766249    3.812081   -0.032726
      2          6           0       -0.397226    2.669763   -0.016896
      3          6           0        0.052125    1.281904    0.008205
      4          6           0        1.431608    1.025282    0.012127
      5          6           0        1.912276   -0.322863    0.021153
      6          6           0        0.992561   -1.395991    0.077524
      7          6           0       -0.421401   -1.182297    0.056540
      8          6           0       -0.916973    0.191280    0.007529
      9          6           0       -2.326106    0.380405   -0.032842
     10          6           0       -3.175550   -0.732794    0.079534
     11          6           0       -2.781637   -2.114345   -0.073295
     12          6           0       -1.380000   -2.256628   -0.076765
     13          7           0        4.527826   -0.795517   -0.022253
     14          6           0        3.347099   -0.580005   -0.011940
     15          1           0        2.145873    1.858550   -0.005831
     16          1           0        1.372483   -2.427035    0.109802
     17          1           0       -2.712936    1.409909   -0.042518
     18          1           0       -4.237182   -0.496456    0.282207
     19          1           0       -0.919934   -3.243176   -0.264044
 ---------------------------------------------------------------------
 Rotational constants (GHZ):      0.9685574      0.5882182      0.3662467
 Standard basis: STO-3G (5D, 7F)
 There are    75 symmetry adapted cartesian basis functions of A   symmetry.
 There are    75 symmetry adapted basis functions of A   symmetry.
    75 basis functions,   225 primitive gaussians,    75 cartesian basis functions
    46 alpha electrons       46 beta electrons
       nuclear repulsion energy       696.3429242215 Hartrees.
 NAtoms=   19 NActive=   19 NUniq=   19 SFac= 1.00D+00 NAtFMM=   60 NAOKFM=F Big=F
 Integral buffers will be    131072 words long.
 Raffenetti 2 integral format.
 Two-electron integral symmetry is turned on.
 One-electron integrals computed using PRISM.
 NBasis=    75 RedAO= T EigKep=  1.75D-01  NBF=    75
 NBsUse=    75 1.00D-06 EigRej= -1.00D+00 NBFU=    75
 Initial guess from the checkpoint file:  "/tmp/bnp.472698.sequoia/Gau-16955.chk"
 B after Tr=     0.000000    0.000000    0.000000
         Rot=    0.999997   -0.000002   -0.000053   -0.002631 Ang=  -0.30 deg.
 ExpMin= 1.69D-01 ExpMax= 9.91D+01 ExpMxC= 9.91D+01 IAcc=1 IRadAn=         1 AccDes= 0.00D+00
 Harris functional with IExCor=  402 and IRadAn=       1 diagonalized for initial guess.
 HarFok:  IExCor=  402 AccDes= 0.00D+00 IRadAn=         1 IDoV= 1 UseB2=F ITyADJ=14
 ICtDFT=  3500011 ScaDFX=  1.000000  1.000000  1.000000  1.000000
 FoFCou: FMM=F IPFlag=           0 FMFlag=      100000 FMFlg1=           0
         NFxFlg=           0 DoJE=T BraDBF=F KetDBF=T FulRan=T
         wScrn=  0.000000 ICntrl=     500 IOpCl=  0 I1Cent=   200000004 NGrid=           0
         NMat0=    1 NMatS0=      1 NMatT0=    0 NMatD0=    1 NMtDS0=    0 NMtDT0=    0
 Petite list used in FoFCou.
 Keep R1 ints in memory in canonical form, NReq=4993994.
 Requested convergence on RMS density matrix=1.00D-08 within 128 cycles.
 Requested convergence on MAX density matrix=1.00D-06.
 Requested convergence on             energy=1.00D-06.
 No special actions if energy rises.
 Integral accuracy reduced to 1.0D-05 until final iterations.
 Initial convergence to 1.0D-05 achieved.  Increase integral accuracy.
 SCF Done:  E(RB3LYP) =  -562.507216799     A.U. after   16 cycles
            NFock= 16  Conv=0.26D-08     -V/T= 2.0142
 Calling FoFJK, ICntrl=      2127 FMM=F ISym2X=0 I1Cent= 0 IOpClX= 0 NMat=1 NMatS=1 NMatT=0.
 ***** Axes restored to original set *****
 -------------------------------------------------------------------
 Center     Atomic                   Forces (Hartrees/Bohr)
 Number     Number              X              Y              Z
 -------------------------------------------------------------------
      1        7           0.000015300    0.000702340   -0.000370714
      2        6          -0.001041504   -0.002036210    0.000883438
      3        6           0.001167007    0.001466123   -0.000523380
      4        6          -0.000490603    0.000393027   -0.000494477
      5        6           0.000788203    0.001723874    0.000550787
      6        6          -0.000648858   -0.003963400    0.000404853
      7        6           0.001989965    0.005688094   -0.000312106
      8        6          -0.002338571   -0.000887920   -0.000854085
      9        6          -0.001564889    0.000963600    0.001294480
     10        6          -0.001705069   -0.003712307    0.001931754
     11        6          -0.000835780    0.005442206   -0.000360276
     12        6           0.003470564   -0.004618678   -0.001607630
     13        7           0.000256449    0.000482386   -0.000262716
     14        6          -0.000569691   -0.000372907    0.000393319
     15        1           0.000328025    0.000043966    0.000141545
     16        1          -0.000158488    0.000056207    0.000363571
     17        1           0.000443429   -0.000300548   -0.001359718
     18        1           0.000527896   -0.000801954    0.000156703
     19        1           0.000366615   -0.000267899    0.000024651
 -------------------------------------------------------------------
 Cartesian Forces:  Max     0.005688094 RMS     0.001732563

 GradGradGradGradGradGradGradGradGradGradGradGradGradGradGradGradGradGrad
 Berny optimization.
 Using GEDIIS/GDIIS optimizer.
 FormGI is forming the generalized inverse of G from B-inverse, IUseBI=4.
 Internal  Forces:  Max     0.004438324 RMS     0.001014824
 Search for a local minimum.
 Step number   3 out of a maximum of  102
 All quantities printed in internal units (Hartrees-Bohrs-Radians)
 Mixed Optimization -- RFO/linear search
 Update second derivatives using D2CorX and points    2    3
 DE= -3.44D-03 DEPred=-3.63D-03 R= 9.48D-01
 TightC=F SS=  1.41D+00  RLast= 4.38D-01 DXNew= 8.4853D-01 1.3133D+00
 Trust test= 9.48D-01 RLast= 4.38D-01 DXMaxT set to 8.49D-01
 ITU=  1  1  0
 Use linear search instead of GDIIS.
     Eigenvalues ---    0.01542   0.01604   0.01833   0.01876   0.01902
     Eigenvalues ---    0.01938   0.01998   0.02036   0.02075   0.02093
     Eigenvalues ---    0.02103   0.02120   0.02145   0.02153   0.02200
     Eigenvalues ---    0.02444   0.04863   0.04869   0.15687   0.15926
     Eigenvalues ---    0.15993   0.15997   0.16141   0.22175   0.23203
     Eigenvalues ---    0.23380   0.23500   0.24739   0.24944   0.24998
     Eigenvalues ---    0.25599   0.34728   0.34738   0.34856   0.35076
     Eigenvalues ---    0.35225   0.38707   0.39916   0.40285   0.40526
     Eigenvalues ---    0.40862   0.43105   0.43583   0.44050   0.45287
     Eigenvalues ---    0.46023   0.46185   0.46760   0.50409   1.27474
     Eigenvalues ---    1.31669
 RFO step:  Lambda=-7.18091362D-04 EMin= 1.54188079D-02
 Quartic linear search produced a step of -0.01811.
 Iteration  1 RMS(Cart)=  0.02952232 RMS(Int)=  0.00102096
 Iteration  2 RMS(Cart)=  0.00104974 RMS(Int)=  0.00005916
 Iteration  3 RMS(Cart)=  0.00000068 RMS(Int)=  0.00005916
 Variable       Old X    -DE/DX   Delta X   Delta X   Delta X     New X
                                 (Linear)    (Quad)   (Total)
    R1        2.26871   0.00000   0.00000  -0.00051  -0.00051   2.26820
    R2        2.75712   0.00101  -0.00010   0.00284   0.00274   2.75986
    R3        2.65158   0.00086   0.00025   0.00039   0.00067   2.65225
    R4        2.75707   0.00036  -0.00003   0.00064   0.00061   2.75767
    R5        2.70476   0.00072  -0.00009   0.00172   0.00166   2.70642
    R6        2.07425  -0.00013  -0.00002  -0.00032  -0.00034   2.07391
    R7        2.67291   0.00148   0.00019   0.00153   0.00173   2.67464
    R8        2.75533  -0.00005  -0.00001  -0.00037  -0.00038   2.75495
    R9        2.70264  -0.00252   0.00022  -0.00737  -0.00718   2.69546
   R10        2.07735  -0.00014  -0.00007  -0.00006  -0.00013   2.07723
   R11        2.76101   0.00320  -0.00006   0.00725   0.00713   2.76814
   R12        2.73251   0.00284  -0.00007   0.00611   0.00604   2.73855
   R13        2.68783   0.00187   0.00002   0.00417   0.00418   2.69201
   R14        2.65464   0.00154   0.00021   0.00172   0.00196   2.65660
   R15        2.07837  -0.00041   0.00005  -0.00158  -0.00153   2.07684
   R16        2.73012   0.00079  -0.00042   0.00360   0.00319   2.73331
   R17        2.09069   0.00044  -0.00007   0.00145   0.00138   2.09207
   R18        2.66233  -0.00207  -0.00009  -0.00399  -0.00407   2.65826
   R19        2.08728   0.00032  -0.00008   0.00122   0.00114   2.08842
   R20        2.26820   0.00055  -0.00001   0.00003   0.00001   2.26821
    A1        2.06782   0.00089  -0.00013   0.00412   0.00395   2.07177
    A2        2.10191  -0.00123   0.00019  -0.00603  -0.00588   2.09603
    A3        2.11334   0.00035  -0.00006   0.00217   0.00205   2.11539
    A4        2.09722   0.00011   0.00009   0.00029   0.00037   2.09759
    A5        2.09539   0.00026  -0.00013   0.00244   0.00226   2.09765
    A6        2.09048  -0.00037   0.00004  -0.00254  -0.00254   2.08795
    A7        2.09036  -0.00040  -0.00003  -0.00155  -0.00158   2.08878
    A8        2.09029  -0.00028   0.00009  -0.00148  -0.00139   2.08890
    A9        2.10246   0.00067  -0.00006   0.00309   0.00303   2.10549
   A10        2.12812   0.00035  -0.00008   0.00139   0.00124   2.12936
   A11        2.08064  -0.00024   0.00002  -0.00091  -0.00086   2.07977
   A12        2.07403  -0.00011   0.00007  -0.00035  -0.00025   2.07378
   A13        2.06724   0.00077   0.00007   0.00284   0.00291   2.07015
   A14        2.14810   0.00009  -0.00023   0.00254   0.00243   2.15052
   A15        2.06069  -0.00083   0.00027  -0.00473  -0.00456   2.05614
   A16        2.06855  -0.00116   0.00003  -0.00463  -0.00463   2.06392
   A17        2.16359   0.00004  -0.00007   0.00085   0.00086   2.16445
   A18        2.05104   0.00112   0.00004   0.00372   0.00362   2.05466
   A19        2.08453  -0.00042   0.00029  -0.00395  -0.00377   2.08075
   A20        2.06368   0.00054   0.00022   0.00261   0.00288   2.06656
   A21        2.12916  -0.00008  -0.00042   0.00260   0.00220   2.13136
   A22        2.19501  -0.00239  -0.00051  -0.00941  -0.01004   2.18496
   A23        2.01044   0.00210   0.00040   0.00922   0.00953   2.01997
   A24        2.07750   0.00029   0.00011  -0.00036  -0.00034   2.07716
   A25        1.94776   0.00444   0.00101   0.00973   0.01061   1.95837
   A26        2.19480  -0.00211  -0.00058  -0.00695  -0.00766   2.18713
   A27        1.98571   0.00136   0.00089   0.00249   0.00339   1.98909
   A28        2.10019   0.00077  -0.00027   0.00553   0.00527   2.10546
   A29        3.14230   0.00157   0.00045   0.08883   0.08927   3.23157
   A30        3.13777   0.00005  -0.00009   0.00155   0.00147   3.13923
   A31        3.14567  -0.00085  -0.00025  -0.04814  -0.04839   3.09728
   A32        3.15898  -0.00048  -0.00009  -0.00893  -0.00902   3.14997
    D1       -3.12920  -0.00048  -0.00004  -0.02243  -0.02250   3.13148
    D2       -0.00246  -0.00015   0.00007  -0.00812  -0.00806  -0.01053
    D3       -0.00453  -0.00009   0.00008  -0.00475  -0.00462  -0.00915
    D4        3.12221   0.00024   0.00019   0.00956   0.00982   3.13203
[...]
 ! D14   D(4,5,6,16)          -178.5805         -DE/DX =    0.0                 !
 ! D15   D(14,5,6,7)          -177.0921         -DE/DX =    0.0                 !
 ! D16   D(14,5,6,16)            1.2775         -DE/DX =    0.0                 !
 ! D17   D(5,6,7,8)             -2.7224         -DE/DX =    0.0                 !
 ! D18   D(5,6,7,12)           169.9679         -DE/DX =    0.0                 !
 ! D19   D(16,6,7,8)           178.907          -DE/DX =    0.0                 !
 ! D20   D(16,6,7,12)           -8.4027         -DE/DX =    0.0                 !
 ! D21   D(6,7,8,3)              0.808          -DE/DX =    0.0                 !
 ! D22   D(6,7,8,9)           -177.7898         -DE/DX =    0.0                 !
 ! D23   D(12,7,8,3)          -172.35           -DE/DX =    0.0                 !
 ! D24   D(12,7,8,9)             9.0522         -DE/DX =    0.0                 !
 ! D25   D(6,7,12,11)          173.5018         -DE/DX =    0.0                 !
 ! D26   D(6,7,12,19)          -10.9265         -DE/DX =    0.0                 !
 ! D27   D(8,7,12,11)          -13.6889         -DE/DX =    0.0                 !
 ! D28   D(8,7,12,19)          161.8828         -DE/DX =    0.0                 !
 ! D29   D(3,8,9,10)          -171.9778         -DE/DX =    0.0                 !
 ! D30   D(3,8,9,17)             1.5791         -DE/DX =    0.0                 !
 ! D31   D(7,8,9,10)             6.5306         -DE/DX =    0.0                 !
 ! D32   D(7,8,9,17)          -179.9125         -DE/DX =    0.0                 !
 ! D33   D(8,9,10,11)          -19.9306         -DE/DX =    0.0                 !
 ! D34   D(8,9,10,18)          161.7003         -DE/DX =    0.0                 !
 ! D35   D(17,9,10,11)         166.7699         -DE/DX =    0.0                 !
 ! D36   D(17,9,10,18)         -11.5993         -DE/DX =    0.0                 !
 ! D37   D(9,10,11,12)          15.4281         -DE/DX =    0.0                 !
 ! D38   D(18,10,11,12)       -166.25           -DE/DX =    0.0                 !
 ! D39   D(10,11,12,7)           1.8689         -DE/DX =    0.0                 !
 ! D40   D(10,11,12,19)       -173.4314         -DE/DX =    0.0                 !
 --------------------------------------------------------------------------------
 GradGradGradGradGradGradGradGradGradGradGradGradGradGradGradGradGradGrad

                          Input orientation:                          
 ---------------------------------------------------------------------
 Center     Atomic      Atomic             Coordinates (Angstroms)
 Number     Number       Type             X           Y           Z
 ---------------------------------------------------------------------
      1          7           0        1.106849   -0.106433   -0.141010
      2          6           0        2.306597   -0.127150   -0.098909
      3          6           0        3.765654   -0.127767   -0.055248
      4          6           0        4.437805    1.104770   -0.020126
      5          6           0        5.866446    1.148619    0.028693
      6          6           0        6.601312   -0.065796    0.072002
      7          6           0        5.965496   -1.334845    0.004531
      8          6           0        4.498734   -1.391944   -0.052713
      9          6           0        3.873292   -2.668488   -0.071730
     10          6           0        4.668444   -3.821280    0.105007
     11          6           0        6.085098   -3.846515   -0.102900
     12          6           0        6.686010   -2.588035   -0.165776
     13          7           0        7.118516    3.491772    0.053716
     14          6           0        6.551306    2.433532    0.036608
     15          1           0        3.866513    2.042037   -0.032906
     16          1           0        7.697807   -0.023098    0.133168
     17          1           0        2.776005   -2.713564   -0.116020
     18          1           0        4.140355   -4.748675    0.394576
     19          1           0        7.752341   -2.476521   -0.428894
 ---------------------------------------------------------------------
                    Distance matrix (angstroms):
                    1          2          3          4          5
     1  N    0.000000
     2  C    1.200665   0.000000
     3  C    2.660274   1.459711   0.000000
     4  C    3.546392   2.462901   1.404338   0.000000
     5  C    4.925213   3.783702   2.459580   1.430148   0.000000
     6  C    5.498741   4.298552   2.839188   2.461600   1.420108
     7  C    5.013644   3.854448   2.509963   2.878570   2.485555
     8  C    3.628391   2.531265   1.461354   2.497669   2.886472
     9  C    3.771224   2.985577   2.543054   3.815601   4.307326
    10  C    5.152239   4.389362   3.805621   4.933034   5.112820
    11  C    6.226767   5.301958   4.383056   5.218778   5.001648
    12  C    6.106226   5.023911   3.820159   4.325789   3.830416
    13  N    7.008933   6.022829   4.935040   3.590188   2.656816
    14  C    6.010415   4.959135   3.785307   2.497141   1.456055
    15  H    3.499051   2.672652   2.172262   1.097729   2.191284
    16  H    6.597184   5.397206   3.938055   3.452998   2.176629
    17  H    3.095778   2.628721   2.769376   4.165387   4.948558
    18  H    5.571303   4.996467   4.657847   5.875651   6.155594
    19  H    7.061357   5.940082   4.642191   4.896824   4.111889
                    6          7          8          9         10
     6  C    0.000000
     7  C    1.421021   0.000000
     8  C    2.488987   1.468988   0.000000
     9  C    3.773163   2.482284   1.421656   0.000000
    10  C    4.223829   2.806207   2.440359   1.411535   0.000000
    11  C    3.819804   2.516810   2.923010   2.506153   1.432052
    12  C    2.534838   1.455552   2.495514   2.815439   2.380082
    13  N    3.595014   4.962671   5.543038   6.963909   7.712731
    14  C    2.500079   3.813773   4.342268   5.763168   6.532421
    15  H    3.454431   3.976237   3.491750   4.710690   5.919510
    16  H    1.099029   2.176724   3.484588   4.654780   4.858397
    17  H    4.656071   3.476816   2.172207   1.099105   2.203908
    18  H    5.299973   3.890695   3.405312   2.148474   1.105798
    19  H    2.717970   2.164279   3.450186   3.900185   3.406443
                   11         12         13         14         15
    11  C    0.000000
    12  C    1.396001   0.000000
    13  N    7.412350   6.099123   0.000000
    14  C    6.298873   5.027449   1.200788   0.000000
    15  H    6.293017   5.422618   3.561567   2.714077   0.000000
    16  H    4.156329   2.773446   3.563173   2.712714   4.355591
    17  H    3.497692   3.912335   7.575778   6.385044   4.879740
    18  H    2.200773   3.385663   8.768729   7.584519   6.809662
    19  H    2.182396   1.103961   6.021227   5.076200   5.972758
                   16         17         18         19
    16  H    0.000000
    17  H    5.614698   0.000000
    18  H    5.920716   2.502765   0.000000
    19  H    2.517573   4.991794   4.345945   0.000000
 Stoichiometry    C12H5N2(1-)
 Framework group  C1[X(C12H5N2)]
 Deg. of freedom    51
 Full point group                 C1      NOp   1
 Largest Abelian subgroup         C1      NOp   1
 Largest concise Abelian subgroup C1      NOp   1
                         Standard orientation:                         
 ---------------------------------------------------------------------
 Center     Atomic      Atomic             Coordinates (Angstroms)
 Number     Number       Type             X           Y           Z
 ---------------------------------------------------------------------
      1          7           0       -0.763061    3.809752   -0.053701
      2          6           0       -0.408040    2.663002   -0.030887
      3          6           0        0.046970    1.276163   -0.010873
      4          6           0        1.427997    1.021768    0.003794
      5          6           0        1.915829   -0.322368    0.029114
      6          6           0        0.991816   -1.399977    0.069926
      7          6           0       -0.412968   -1.191072    0.022611
      8          6           0       -0.925382    0.185253   -0.010413
      9          6           0       -2.333450    0.381335   -0.009392
     10          6           0       -3.178459   -0.736048    0.163371
     11          6           0       -2.763187   -2.087022   -0.067263
     12          6           0       -1.380950   -2.264374   -0.149626
     13          7           0        4.532726   -0.780996    0.015672
     14          6           0        3.350241   -0.572140    0.015965
     15          1           0        2.140104    1.857109   -0.006996
     16          1           0        1.375117   -2.429098    0.112983
     17          1           0       -2.719048    1.410248   -0.035545
     18          1           0       -4.220625   -0.527508    0.468643
     19          1           0       -0.945706   -3.239161   -0.430846
 ---------------------------------------------------------------------
 Rotational constants (GHZ):      0.9708585      0.5874966      0.3666488

 **********************************************************************

            Population analysis using the SCF density.

 **********************************************************************

 Orbital symmetries:
       Occupied  (A) (A) (A) (A) (A) (A) (A) (A) (A) (A) (A) (A)
                 (A) (A) (A) (A) (A) (A) (A) (A) (A) (A) (A) (A)
                 (A) (A) (A) (A) (A) (A) (A) (A) (A) (A) (A) (A)
                 (A) (A) (A) (A) (A) (A) (A) (A) (A) (A)
       Virtual   (A) (A) (A) (A) (A) (A) (A) (A) (A) (A) (A) (A)
                 (A) (A) (A) (A) (A) (A) (A) (A) (A) (A) (A) (A)
                 (A) (A) (A) (A) (A)
 The electronic state is 1-A.
 Alpha  occ. eigenvalues --  -13.98837 -13.98605  -9.90250  -9.90133  -9.89481
 Alpha  occ. eigenvalues --   -9.89213  -9.88972  -9.87545  -9.86967  -9.86042
 Alpha  occ. eigenvalues --   -9.82786  -9.81504  -9.79893  -9.69564  -0.72599
 Alpha  occ. eigenvalues --   -0.72197  -0.67517  -0.61360  -0.59107  -0.53921
 Alpha  occ. eigenvalues --   -0.50826  -0.45177  -0.43524  -0.39369  -0.35226
 Alpha  occ. eigenvalues --   -0.32043  -0.29715  -0.28814  -0.24289  -0.23512
 Alpha  occ. eigenvalues --   -0.21355  -0.20490  -0.18874  -0.17505  -0.17326
 Alpha  occ. eigenvalues --   -0.15602  -0.15171  -0.14668  -0.13417  -0.12991
 Alpha  occ. eigenvalues --   -0.11629  -0.09327  -0.07212  -0.01698   0.00932
 Alpha  occ. eigenvalues --    0.09715
 Alpha virt. eigenvalues --    0.16371   0.19572   0.25226   0.26522   0.26828
 Alpha virt. eigenvalues --    0.28034   0.33713   0.37935   0.42207   0.44491
 Alpha virt. eigenvalues --    0.46263   0.51485   0.53580   0.57350   0.57659
 Alpha virt. eigenvalues --    0.59385   0.59800   0.63006   0.67790   0.70271
 Alpha virt. eigenvalues --    0.70924   0.75698   0.79235   0.82329   0.83935
 Alpha virt. eigenvalues --    0.92715   0.94923   1.06446   1.07306
          Condensed to atoms (all electrons):
               1          2          3          4          5          6
     1  N    6.595072   0.658674  -0.010898  -0.000157  -0.000001   0.000000
     2  C    0.658674   4.933785   0.421492  -0.031321   0.000886   0.000012
     3  C   -0.010898   0.421492   4.784430   0.508324  -0.028885  -0.008736
     4  C   -0.000157  -0.031321   0.508324   4.829906   0.475032  -0.029424
     5  C   -0.000001   0.000886  -0.028885   0.475032   4.781362   0.485887
     6  C    0.000000   0.000012  -0.008736  -0.029424   0.485887   4.843862
     7  C   -0.000001   0.000726  -0.024359  -0.008140  -0.026210   0.485434
     8  C   -0.000004  -0.026537   0.447334  -0.026693  -0.007917  -0.027077
     9  C   -0.000101  -0.003849  -0.027323   0.000651   0.000039   0.000777
    10  C    0.000000   0.000014   0.000739  -0.000007  -0.000001   0.000059
    11  C    0.000000   0.000000   0.000021   0.000000  -0.000007   0.000701
    12  C    0.000000  -0.000005   0.000691   0.000028   0.000670  -0.025944
    13  N    0.000000   0.000000  -0.000001  -0.000089  -0.011197  -0.000097
    14  C    0.000000  -0.000006   0.000827  -0.029120   0.425424  -0.028237
    15  H    0.000059  -0.003770  -0.024490   0.387314  -0.024213   0.001229
    16  H    0.000000   0.000001   0.000032   0.001275  -0.025932   0.385456
    17  H   -0.000170   0.001588  -0.003551   0.000016  -0.000001  -0.000016
    18  H    0.000000   0.000000  -0.000017   0.000000   0.000000   0.000001
    19  H    0.000000   0.000000  -0.000019  -0.000001   0.000006  -0.003740
               7          8          9         10         11         12
     1  N   -0.000001  -0.000004  -0.000101   0.000000   0.000000   0.000000
     2  C    0.000726  -0.026537  -0.003849   0.000014   0.000000  -0.000005
     3  C   -0.024359   0.447334  -0.027323   0.000739   0.000021   0.000691
     4  C   -0.008140  -0.026693   0.000651  -0.000007   0.000000   0.000028
     5  C   -0.026210  -0.007917   0.000039  -0.000001  -0.000007   0.000670
     6  C    0.485434  -0.027077   0.000777   0.000059   0.000701  -0.025944
     7  C    4.824461   0.443886  -0.028603  -0.013030  -0.021905   0.444425
     8  C    0.443886   4.809365   0.490130  -0.030126  -0.008460  -0.029630
     9  C   -0.028603   0.490130   4.880291   0.490458  -0.021418  -0.011368
    10  C   -0.013030  -0.030126   0.490458   4.889130   0.451532  -0.031927
    11  C   -0.021905  -0.008460  -0.021418   0.451532   5.349367   0.497790
    12  C    0.444425  -0.029630  -0.011368  -0.031927   0.497790   4.914147
    13  N   -0.000001   0.000000   0.000000   0.000000   0.000000   0.000000
    14  C    0.000796   0.000011   0.000000   0.000000   0.000000  -0.000005
    15  H    0.000031   0.001177  -0.000015   0.000000   0.000000   0.000000
    16  H   -0.025125   0.001285  -0.000017   0.000001   0.000019  -0.003262
    17  H    0.001221  -0.027550   0.382721  -0.023177   0.001134   0.000076
    18  H    0.000013   0.001366  -0.033122   0.379606  -0.031213   0.001955
    19  H   -0.033573   0.001195   0.000019   0.002068  -0.031631   0.380854
              13         14         15         16         17         18
     1  N    0.000000   0.000000   0.000059   0.000000  -0.000170   0.000000
     2  C    0.000000  -0.000006  -0.003770   0.000001   0.001588   0.000000
     3  C   -0.000001   0.000827  -0.024490   0.000032  -0.003551  -0.000017
     4  C   -0.000089  -0.029120   0.387314   0.001275   0.000016   0.000000
     5  C   -0.011197   0.425424  -0.024213  -0.025932  -0.000001   0.000000
     6  C   -0.000097  -0.028237   0.001229   0.385456  -0.000016   0.000001
     7  C   -0.000001   0.000796   0.000031  -0.025125   0.001221   0.000013
     8  C    0.000000   0.000011   0.001177   0.001285  -0.027550   0.001366
     9  C    0.000000   0.000000  -0.000015  -0.000017   0.382721  -0.033122
    10  C    0.000000   0.000000   0.000000   0.000001  -0.023177   0.379606
    11  C    0.000000   0.000000   0.000000   0.000019   0.001134  -0.031213
    12  C    0.000000  -0.000005   0.000000  -0.003262   0.000076   0.001955
    13  N    6.599022   0.658073   0.000057   0.000060   0.000000   0.000000
    14  C    0.658073   4.936978  -0.003169  -0.003283   0.000000   0.000000
    15  H    0.000057  -0.003169   0.595911  -0.000033  -0.000001   0.000000
    16  H    0.000060  -0.003283  -0.000033   0.603366   0.000000   0.000000
    17  H    0.000000   0.000000  -0.000001   0.000000   0.625208  -0.003125
    18  H    0.000000   0.000000   0.000000   0.000000  -0.003125   0.658403
    19  H    0.000000   0.000000   0.000000   0.001179   0.000004  -0.000023
              19
     1  N    0.000000
     2  C    0.000000
     3  C   -0.000019
     4  C   -0.000001
     5  C    0.000006
     6  C   -0.003740
     7  C   -0.033573
     8  C    0.001195
     9  C    0.000019
    10  C    0.002068
    11  C   -0.031631
    12  C    0.380854
    13  N    0.000000
    14  C    0.000000
    15  H    0.000000
    16  H    0.001179
    17  H    0.000004
    18  H   -0.000023
    19  H    0.662912
 Mulliken charges:
               1
     1  N   -0.242473
     2  C    0.048310
     3  C   -0.035612
     4  C   -0.077598
     5  C   -0.044944
     6  C   -0.080148
     7  C   -0.020047
     8  C   -0.011754
     9  C   -0.119271
    10  C   -0.115341
    11  C   -0.185930
    12  C   -0.138496
    13  N   -0.245829
    14  C    0.041711
    15  H    0.069911
    16  H    0.064979
    17  H    0.045624
    18  H    0.026156
    19  H    0.020750
 Sum of Mulliken charges =  -1.00000
 Mulliken charges with hydrogens summed into heavy atoms:
               1
     1  N   -0.242473
     2  C    0.048310
     3  C   -0.035612
     4  C   -0.007687
     5  C   -0.044944
     6  C   -0.015169
     7  C   -0.020047
     8  C   -0.011754
     9  C   -0.073647
    10  C   -0.089185
    11  C   -0.185930
    12  C   -0.117746
    13  N   -0.245829
    14  C    0.041711
 Electronic spatial extent (au):  <R**2>=           2782.1098
 Charge=             -1.0000 electrons
 Dipole moment (field-independent basis, Debye):
    X=              1.9309    Y=              1.1247    Z=              0.2255  Tot=              2.2459
 Quadrupole moment (field-independent basis, Debye-Ang):
   XX=           -119.6789   YY=           -103.2955   ZZ=            -74.4745
   XY=             -3.6577   XZ=             -0.7571   YZ=             -0.2986
 Traceless Quadrupole moment (field-independent basis, Debye-Ang):
   XX=            -20.5293   YY=             -4.1458   ZZ=             24.6751
   XY=             -3.6577   XZ=             -0.7571   YZ=             -0.2986
 Octapole moment (field-independent basis, Debye-Ang**2):
  XXX=            -76.5694  YYY=            -52.2008  ZZZ=             -0.0372  XYY=             53.4330
  XXY=             64.7180  XXZ=              1.7729  XZZ=              4.2475  YZZ=              3.3839
  YYZ=              2.6851  XYZ=              1.5920
 Hexadecapole moment (field-independent basis, Debye-Ang**3):
 XXXX=          -3031.0325 YYYY=          -1748.9438 ZZZZ=            -62.7880 XXXY=             -7.8743
 XXXZ=            -10.7218 YYYX=            -19.4555 YYYZ=              1.9964 ZZZX=              0.0570
 ZZZY=             -0.9290 XXYY=           -700.3064 XXZZ=           -373.4562 YYZZ=           -232.4263
 XXYZ=             -5.3894 YYXZ=             -5.7563 ZZXY=             -7.0743
 N-N= 6.963449746188D+02 E-N=-2.714389683257D+03  KE= 5.546039857861D+02
 1\1\GINC-N046\FOpt\RB3LYP\STO-3G\C12H5N2(1-)\R2532\15-Jun-2021\0\\#N B
 3LYP/STO-3G OPT\\1Naph\\-1,1\N,1.106848819,-0.1064331155,-0.1410102156
 \C,2.3065968269,-0.1271501454,-0.0989086119\C,3.7656543154,-0.12776675
 66,-0.0552482002\C,4.4378050268,1.1047698207,-0.020125715\C,5.86644643
 66,1.1486189261,0.0286933964\C,6.6013118377,-0.0657958868,0.0720021129
 \C,5.965495517,-1.3348446805,0.0045313517\C,4.4987340393,-1.3919436501
 ,-0.052712616\C,3.8732921278,-2.668487951,-0.0717301089\C,4.6684435445
 ,-3.8212800813,0.1050072254\C,6.0850982596,-3.8465148059,-0.1029004198
 \C,6.6860096093,-2.5880351518,-0.1657758532\N,7.1185164736,3.491772219
 8,0.0537164121\C,6.5513060707,2.4335321675,0.0366078363\H,3.8665131538
 ,2.0420373118,-0.0329060295\H,7.6978065594,-0.0230981329,0.1331681405\
 H,2.7760051433,-2.7135639931,-0.1160204912\H,4.1403547755,-4.748674853
 ,0.3945761654\H,7.7523414637,-2.4765212418,-0.4288943794\\Version=ES64
 L-G09RevD.01\State=1-A\HF=-562.5078678\RMSD=6.261e-09\RMSF=1.047e-05\D
 ipole=-0.1848747,0.8590976,0.0924171\Quadrupole=-2.6512253,-15.6779716
 ,18.3291969,-1.4072601,-0.3158428,-0.890868\PG=C01 [X(C12H5N2)]\\@


 Everywhere is walking distance if you have the time.
                                    -- Steven Wright
 Job cpu time:       0 days  0 hours  6 minutes  6.8 seconds.
 File lengths (MBytes):  RWF=      5 Int=      0 D2E=      0 Chk=      2 Scr=      1
 Normal termination of Gaussian 09 at Tue Jun 15 11:20:56 2021.
