 Entering Gaussian System, Link 0=/usr/local/apps//g09/g09
 Input=22.com
 Output=22.out
 Initial command:
 /usr/local/apps//g09/l1.exe "/tmp/bnp.472649.sequoia/Gau-19263.inp" -scrdir="/tmp/bnp.472649.sequoia/"
 Entering Link 1 = /usr/local/apps//g09/l1.exe PID=     19264.
  
 Copyright (c) 1988,1990,1992,1993,1995,1998,2003,2009,2013,
            Gaussian, Inc.  All Rights Reserved.
  
 This is part of the Gaussian(R) 09 program.  It is based on
 the Gaussian(R) 03 system (copyright 2003, Gaussian, Inc.),
 the Gaussian(R) 98 system (copyright 1998, Gaussian, Inc.),
 the Gaussian(R) 94 system (copyright 1995, Gaussian, Inc.),
 the Gaussian 92(TM) system (copyright 1992, Gaussian, Inc.),
 the Gaussian 90(TM) system (copyright 1990, Gaussian, Inc.),
 the Gaussian 88(TM) system (copyright 1988, Gaussian, Inc.),
 the Gaussian 86(TM) system (copyright 1986, Carnegie Mellon
 University), and the Gaussian 82(TM) system (copyright 1983,
 Carnegie Mellon University). Gaussian is a federally registered
 trademark of Gaussian, Inc.
  
 This software contains proprietary and confidential information,
 including trade secrets, belonging to Gaussian, Inc.
  
 This software is provided under written license and may be
 used, copied, transmitted, or stored only in accord with that
 written license.
  
 The following legend is applicable only to US Government
 contracts under FAR:
  
                    RESTRICTED RIGHTS LEGEND
  
 Use, reproduction and disclosure by the US Government is
 subject to restrictions as set forth in subparagraphs (a)
 and (c) of the Commercial Computer Software - Restricted
 Rights clause in FAR 52.227-19.
  
 Gaussian, Inc.
 340 Quinnipiac St., Bldg. 40, Wallingford CT 06492
  
  
 ---------------------------------------------------------------
 Warning -- This program may not be used in any manner that
 competes with the business of Gaussian, Inc. or will provide
 assistance to any competitor of Gaussian, Inc.  The licensee
 of this program is prohibited from giving any competitor of
 Gaussian, Inc. access to this program.  By using this program,
 the user acknowledges that Gaussian, Inc. is engaged in the
 business of creating and licensing software in the field of
 computational chemistry and represents and warrants to the
 licensee that it is not a competitor of Gaussian, Inc. and that
 it will not use this program in any manner prohibited above.
 ---------------------------------------------------------------
  

 Cite this work as:
 Gaussian 09, Revision D.01,
 M. J. Frisch, G. W. Trucks, H. B. Schlegel, G. E. Scuseria, 
 M. A. Robb, J. R. Cheeseman, G. Scalmani, V. Barone, B. Mennucci, 
 G. A. Petersson, H. Nakatsuji, M. Caricato, X. Li, H. P. Hratchian, 
 A. F. Izmaylov, J. Bloino, G. Zheng, J. L. Sonnenberg, M. Hada, 
 M. Ehara, K. Toyota, R. Fukuda, J. Hasegawa, M. Ishida, T. Nakajima, 
 Y. Honda, O. Kitao, H. Nakai, T. Vreven, J. A. Montgomery, Jr., 
 J. E. Peralta, F. Ogliaro, M. Bearpark, J. J. Heyd, E. Brothers, 
 K. N. Kudin, V. N. Staroverov, T. Keith, R. Kobayashi, J. Normand, 
 K. Raghavachari, A. Rendell, J. C. Burant, S. S. Iyengar, J. Tomasi, 
 M. Cossi, N. Rega, J. M. Millam, M. Klene, J. E. Knox, J. B. Cross, 
 V. Bakken, C. Adamo, J. Jaramillo, R. Gomperts, R. E. Stratmann, 
 O. Yazyev, A. J. Austin, R. Cammi, C. Pomelli, J. W. Ochterski, 
 R. L. Martin, K. Morokuma, V. G. Zakrzewski, G. A. Voth, 
 P. Salvador, J. J. Dannenberg, S. Dapprich, A. D. Daniels, 
 O. Farkas, J. B. Foresman, J. V. Ortiz, J. Cioslowski, 
 and D. J. Fox, Gaussian, Inc., Wallingford CT, 2013.
 
 ******************************************
 Gaussian 09:  ES64L-G09RevD.01 24-Apr-2013
                15-Jun-2021 
 ******************************************
 -------------------
 #N B3LYP/STO-3G OPT
 -------------------
 1/14=-1,18=20,19=15,26=3,38=1/1,3;
 2/9=110,12=2,17=6,18=5,40=1/2;
 3/6=3,11=2,16=1,25=1,30=1,71=1,74=-5/1,2,3;
 4//1;
 5/5=2,38=5/2;
 6/7=2,8=2,9=2,10=2,28=1/1;
 7//1,2,3,16;
 1/14=-1,18=20,19=15,26=3/3(2);
 2/9=110/2;
 99//99;
 2/9=110/2;
 3/6=3,11=2,16=1,25=1,30=1,71=1,74=-5/1,2,3;
 4/5=5,16=3,69=1/1;
 5/5=2,38=5/2;
 7//1,2,3,16;
 1/14=-1,18=20,19=15,26=3/3(-5);
 2/9=110/2;
 6/7=2,8=2,9=2,10=2,19=2,28=1/1;
 99/9=1/99;
 -----
 2Naph
 -----
 Symbolic Z-matrix:
 Charge = -1 Multiplicity = 1
 N                     1.16566  -0.06451   0.08953 
 C                     2.32594  -0.07166   0.0892 
 C                     4.485    -1.25828   0.08855 
 C                     3.7602   -0.05809   0.08898 
 C                     4.43875   1.15887   0.08905 
 C                     5.83289   1.17836   0.08864 
 C                     6.5719   -0.01443   0.0879 
 C                     5.90484  -1.26678   0.08802 
 C                     6.69994  -2.44535   0.08712 
 C                     8.10014  -2.3667    0.08616 
 C                     8.73122  -1.13081   0.086 
 C                     7.97332   0.03456   0.08647 
 N                     5.64615  -4.81847   0.0877 
 C                     6.11037  -3.75554   0.08715 
 H                     3.92998  -2.19733   0.08849 
 H                     3.89108   2.10001   0.08943 
 H                     6.3408    2.14204   0.0884 
 H                     8.71142  -3.26688   0.08573 
 H                     8.49783   0.9879    0.08558 
 

 GradGradGradGradGradGradGradGradGradGradGradGradGradGradGradGradGradGrad
 Berny optimization.
 Initialization pass.
                           ----------------------------
                           !    Initial Parameters    !
                           ! (Angstroms and Degrees)  !
 --------------------------                            --------------------------
 ! Name  Definition              Value          Derivative Info.                !
 --------------------------------------------------------------------------------
 ! R1    R(1,2)                  1.1603         estimate D2E/DX2                !
 ! R2    R(2,4)                  1.4343         estimate D2E/DX2                !
 ! R3    R(3,4)                  1.4021         estimate D2E/DX2                !
 ! R4    R(3,8)                  1.4199         estimate D2E/DX2                !
 ! R5    R(3,15)                 1.0908         estimate D2E/DX2                !
 ! R6    R(4,5)                  1.3933         estimate D2E/DX2                !
 ! R7    R(5,6)                  1.3943         estimate D2E/DX2                !
 ! R8    R(5,16)                 1.0889         estimate D2E/DX2                !
 ! R9    R(6,7)                  1.4032         estimate D2E/DX2                !
 ! R10   R(6,17)                 1.0893         estimate D2E/DX2                !
 ! R11   R(7,8)                  1.4189         estimate D2E/DX2                !
 ! R12   R(7,12)                 1.4023         estimate D2E/DX2                !
 ! R13   R(8,9)                  1.4217         estimate D2E/DX2                !
 ! R14   R(9,10)                 1.4024         estimate D2E/DX2                !
 ! R15   R(9,14)                 1.4367         estimate D2E/DX2                !
 ! R16   R(10,11)                1.3877         estimate D2E/DX2                !
 ! R17   R(10,18)                1.0881         estimate D2E/DX2                !
 ! R18   R(11,12)                1.3901         estimate D2E/DX2                !
 ! R19   R(12,19)                1.0881         estimate D2E/DX2                !
 ! R20   R(13,14)                1.1599         estimate D2E/DX2                !
 ! A1    A(4,3,8)              121.471          estimate D2E/DX2                !
 ! A2    A(4,3,15)             118.2871         estimate D2E/DX2                !
 ! A3    A(8,3,15)             120.242          estimate D2E/DX2                !
 ! A4    A(2,4,3)              120.5859         estimate D2E/DX2                !
 ! A5    A(2,4,5)              119.6851         estimate D2E/DX2                !
 ! A6    A(3,4,5)              119.729          estimate D2E/DX2                !
 ! A7    A(4,5,6)              119.944          estimate D2E/DX2                !
 ! A8    A(4,5,16)             120.6609         estimate D2E/DX2                !
 ! A9    A(6,5,16)             119.3951         estimate D2E/DX2                !
 ! A10   A(5,6,7)              120.9799         estimate D2E/DX2                !
 ! A11   A(5,6,17)             118.5925         estimate D2E/DX2                !
 ! A12   A(7,6,17)             120.4275         estimate D2E/DX2                !
 ! A13   A(6,7,8)              120.1773         estimate D2E/DX2                !
 ! A14   A(6,7,12)             119.7788         estimate D2E/DX2                !
 ! A15   A(8,7,12)             120.0439         estimate D2E/DX2                !
 ! A16   A(3,8,7)              117.6988         estimate D2E/DX2                !
 ! A17   A(3,8,9)              124.3478         estimate D2E/DX2                !
 ! A18   A(7,8,9)              117.9533         estimate D2E/DX2                !
 ! A19   A(8,9,10)             120.7899         estimate D2E/DX2                !
 ! A20   A(8,9,14)             121.768          estimate D2E/DX2                !
 ! A21   A(10,9,14)            117.4421         estimate D2E/DX2                !
 ! A22   A(9,10,11)            120.2651         estimate D2E/DX2                !
 ! A23   A(9,10,18)            120.9641         estimate D2E/DX2                !
 ! A24   A(11,10,18)           118.7708         estimate D2E/DX2                !
 ! A25   A(10,11,12)           119.9118         estimate D2E/DX2                !
 ! A26   A(7,12,11)            121.0359         estimate D2E/DX2                !
 ! A27   A(7,12,19)            120.8209         estimate D2E/DX2                !
 ! A28   A(11,12,19)           118.1432         estimate D2E/DX2                !
 ! A29   L(1,2,4,13,-1)        180.8951         estimate D2E/DX2                !
 ! A30   L(9,14,13,1,-1)       180.6345         estimate D2E/DX2                !
 ! A31   L(1,2,4,13,-2)        180.009          estimate D2E/DX2                !
 ! A32   L(9,14,13,1,-2)       180.0269         estimate D2E/DX2                !
 ! D1    D(8,3,4,2)            179.9855         estimate D2E/DX2                !
 ! D2    D(8,3,4,5)             -0.0076         estimate D2E/DX2                !
 ! D3    D(15,3,4,2)            -0.0061         estimate D2E/DX2                !
 ! D4    D(15,3,4,5)          -179.9992         estimate D2E/DX2                !
 ! D5    D(4,3,8,7)             -0.0018         estimate D2E/DX2                !
 ! D6    D(4,3,8,9)           -179.9782         estimate D2E/DX2                !
 ! D7    D(15,3,8,7)           179.9896         estimate D2E/DX2                !
 ! D8    D(15,3,8,9)             0.0132         estimate D2E/DX2                !
 ! D9    D(2,4,5,6)           -179.9907         estimate D2E/DX2                !
 ! D10   D(2,4,5,16)             0.0098         estimate D2E/DX2                !
 ! D11   D(3,4,5,6)              0.0025         estimate D2E/DX2                !
 ! D12   D(3,4,5,16)          -179.9971         estimate D2E/DX2                !
 ! D13   D(4,5,6,7)              0.0121         estimate D2E/DX2                !
 ! D14   D(4,5,6,17)           179.9818         estimate D2E/DX2                !
 ! D15   D(16,5,6,7)          -179.9883         estimate D2E/DX2                !
 ! D16   D(16,5,6,17)           -0.0187         estimate D2E/DX2                !
 ! D17   D(5,6,7,8)             -0.0217         estimate D2E/DX2                !
 ! D18   D(5,6,7,12)           179.9515         estimate D2E/DX2                !
 ! D19   D(17,6,7,8)          -179.9908         estimate D2E/DX2                !
 ! D20   D(17,6,7,12)           -0.0176         estimate D2E/DX2                !
 ! D21   D(6,7,8,3)              0.0162         estimate D2E/DX2                !
 ! D22   D(6,7,8,9)            179.9941         estimate D2E/DX2                !
 ! D23   D(12,7,8,3)          -179.9569         estimate D2E/DX2                !
 ! D24   D(12,7,8,9)             0.0211         estimate D2E/DX2                !
 ! D25   D(6,7,12,11)          179.9861         estimate D2E/DX2                !
 ! D26   D(6,7,12,19)           -0.0211         estimate D2E/DX2                !
 ! D27   D(8,7,12,11)           -0.0407         estimate D2E/DX2                !
 ! D28   D(8,7,12,19)          179.9521         estimate D2E/DX2                !
 ! D29   D(3,8,9,10)           179.9771         estimate D2E/DX2                !
 ! D30   D(3,8,9,14)            -0.0228         estimate D2E/DX2                !
 ! D31   D(7,8,9,10)             0.0007         estimate D2E/DX2                !
 ! D32   D(7,8,9,14)          -179.9991         estimate D2E/DX2                !
 ! D33   D(8,9,10,11)           -0.0036         estimate D2E/DX2                !
 ! D34   D(8,9,10,18)          179.984          estimate D2E/DX2                !
 ! D35   D(14,9,10,11)         179.9962         estimate D2E/DX2                !
 ! D36   D(14,9,10,18)          -0.0161         estimate D2E/DX2                !
 ! D37   D(9,10,11,12)          -0.0154         estimate D2E/DX2                !
 ! D38   D(18,10,11,12)        179.9967         estimate D2E/DX2                !
 ! D39   D(10,11,12,7)           0.0378         estimate D2E/DX2                !
 ! D40   D(10,11,12,19)       -179.9553         estimate D2E/DX2                !
 --------------------------------------------------------------------------------
 Trust Radius=3.00D-01 FncErr=1.00D-07 GrdErr=1.00D-06
 Number of steps in this run=    102 maximum allowed number of steps=    114.
 GradGradGradGradGradGradGradGradGradGradGradGradGradGradGradGradGradGrad

                          Input orientation:                          
 ---------------------------------------------------------------------
 Center     Atomic      Atomic             Coordinates (Angstroms)
 Number     Number       Type             X           Y           Z
 ---------------------------------------------------------------------
      1          7           0        1.165660   -0.064510    0.089530
      2          6           0        2.325940   -0.071660    0.089200
      3          6           0        4.485000   -1.258280    0.088550
      4          6           0        3.760200   -0.058090    0.088980
      5          6           0        4.438750    1.158870    0.089050
      6          6           0        5.832890    1.178360    0.088640
      7          6           0        6.571900   -0.014430    0.087900
      8          6           0        5.904840   -1.266780    0.088020
      9          6           0        6.699940   -2.445350    0.087120
     10          6           0        8.100140   -2.366700    0.086160
     11          6           0        8.731220   -1.130810    0.086000
     12          6           0        7.973320    0.034560    0.086470
     13          7           0        5.646150   -4.818470    0.087700
     14          6           0        6.110370   -3.755540    0.087150
     15          1           0        3.929980   -2.197330    0.088490
     16          1           0        3.891080    2.100010    0.089430
     17          1           0        6.340800    2.142040    0.088400
     18          1           0        8.711420   -3.266880    0.085730
     19          1           0        8.497830    0.987900    0.085580
 ---------------------------------------------------------------------
                    Distance matrix (angstroms):
                    1          2          3          4          5
     1  N    0.000000
     2  C    1.160302   0.000000
     3  C    3.527479   2.463657   0.000000
     4  C    2.594548   1.434324   1.402067   0.000000
     5  C    3.494249   2.445030   2.417592   1.393349   0.000000
     6  C    4.829882   3.723070   2.784604   2.413473   1.394276
     7  C    5.406472   4.246346   2.429468   2.812039   2.434536
     8  C    4.889303   3.773174   1.419866   2.461791   2.834290
     9  C    6.024671   4.976574   2.512986   3.786963   4.254807
    10  C    7.306648   6.213582   3.781248   4.915767   5.082856
    11  C    7.640334   6.492259   4.248134   5.085448   4.864971
    12  C    6.808382   5.648380   3.720190   4.214139   3.709079
    13  N    6.532605   5.792754   3.744759   5.120354   6.098066
    14  C    6.170402   5.281372   2.979620   4.381146   5.190929
    15  H    3.491474   2.662972   1.090808   2.145967   3.394544
    16  H    3.480382   2.676904   3.410404   2.162065   1.088893
    17  H    5.625917   4.584710   3.873780   3.391175   2.141125
    18  H    8.197175   7.140294   4.679435   5.900078   6.151665
    19  H    7.407314   6.262181   4.598710   4.851726   4.062681
                    6          7          8          9         10
     6  C    0.000000
     7  C    1.403169   0.000000
     8  C    2.446198   1.418926   0.000000
     9  C    3.725997   2.434290   1.421693   0.000000
    10  C    4.208073   2.805119   2.455437   1.402407   0.000000
    11  C    3.705751   2.430837   2.829649   2.419528   1.387691
    12  C    2.426875   1.402277   2.443788   2.787732   2.404607
    13  N    5.999737   4.892424   3.561098   2.596569   3.468897
    14  C    4.941697   3.769471   2.497232   1.436729   2.426533
    15  H    3.875093   3.427068   2.183116   2.781042   4.173599
    16  H    2.149434   3.414331   3.923074   5.343220   6.137401
    17  H    1.089335   2.168818   3.436585   4.601427   4.839837
    18  H    5.295857   3.893068   3.446345   2.172778   1.088112
    19  H    2.671739   2.171147   3.436158   3.875515   3.378091
                   11         12         13         14         15
    11  C    0.000000
    12  C    1.390144   0.000000
    13  N    4.807962   5.382158   0.000000
    14  C    3.709186   4.223203   1.159880   0.000000
    15  H    4.918270   4.618434   3.132988   2.679948   0.000000
    16  H    5.819378   4.575016   7.137621   6.262006   4.297516
    17  H    4.052858   2.665820   6.995087   5.902080   4.964090
    18  H    2.136162   3.382942   3.435595   2.646555   4.899603
    19  H    2.131526   1.088103   6.468850   5.310385   5.568748
                   16         17         18         19
    16  H    0.000000
    17  H    2.450081   0.000000
    18  H    7.213820   5.905613   0.000000
    19  H    4.739087   2.446390   4.260138   0.000000
 Stoichiometry    C12H5N2(1-)
 Framework group  C1[X(C12H5N2)]
 Deg. of freedom    51
 Full point group                 C1      NOp   1
 Largest Abelian subgroup         C1      NOp   1
 Largest concise Abelian subgroup C1      NOp   1
                         Standard orientation:                         
 ---------------------------------------------------------------------
 Center     Atomic      Atomic             Coordinates (Angstroms)
 Number     Number       Type             X           Y           Z
 ---------------------------------------------------------------------
      1          7           0       -4.312711    1.237626    0.000564
      2          6           0       -3.289943    0.689678    0.000345
      3          6           0       -0.826311    0.700854   -0.000194
      4          6           0       -2.036371   -0.007346   -0.000111
      5          6           0       -2.021542   -1.400616   -0.000328
      6          6           0       -0.806044   -2.083677   -0.000574
      7          6           0        0.412965   -1.388765   -0.000352
      8          6           0        0.425135    0.030108   -0.000336
      9          6           0        1.686629    0.685734    0.000021
     10          6           0        2.879192   -0.052196    0.000331
     11          6           0        2.843274   -1.439422    0.000369
     12          6           0        1.620768   -2.101220    0.000423
     13          7           0        1.894398    3.273977   -0.000399
     14          6           0        1.794505    2.118407    0.000083
     15          1           0       -0.865363    1.790963   -0.000005
     16          1           0       -2.952245   -1.965840   -0.000315
     17          1           0       -0.820145   -3.172921   -0.000436
     18          1           0        3.846214    0.446658    0.000344
     19          1           0        1.626190   -3.189310    0.001201
 ---------------------------------------------------------------------
 Rotational constants (GHZ):      1.1310792      0.5689947      0.3785589
 Standard basis: STO-3G (5D, 7F)
 There are    75 symmetry adapted cartesian basis functions of A   symmetry.
 There are    75 symmetry adapted basis functions of A   symmetry.
    75 basis functions,   225 primitive gaussians,    75 cartesian basis functions
    46 alpha electrons       46 beta electrons
       nuclear repulsion energy       708.7145188521 Hartrees.
 NAtoms=   19 NActive=   19 NUniq=   19 SFac= 1.00D+00 NAtFMM=   60 NAOKFM=F Big=F
 Integral buffers will be    131072 words long.
 Raffenetti 2 integral format.
 Two-electron integral symmetry is turned on.
 One-electron integrals computed using PRISM.
 NBasis=    75 RedAO= T EigKep=  1.55D-01  NBF=    75
 NBsUse=    75 1.00D-06 EigRej= -1.00D+00 NBFU=    75
 ExpMin= 1.69D-01 ExpMax= 9.91D+01 ExpMxC= 9.91D+01 IAcc=1 IRadAn=         1 AccDes= 0.00D+00
 Harris functional with IExCor=  402 and IRadAn=       1 diagonalized for initial guess.
 HarFok:  IExCor=  402 AccDes= 0.00D+00 IRadAn=         1 IDoV= 1 UseB2=F ITyADJ=14
 ICtDFT=  3500011 ScaDFX=  1.000000  1.000000  1.000000  1.000000
 FoFCou: FMM=F IPFlag=           0 FMFlag=      100000 FMFlg1=           0
         NFxFlg=           0 DoJE=T BraDBF=F KetDBF=T FulRan=T
         wScrn=  0.000000 ICntrl=     500 IOpCl=  0 I1Cent=   200000004 NGrid=           0
         NMat0=    1 NMatS0=      1 NMatT0=    0 NMatD0=    1 NMtDS0=    0 NMtDT0=    0
 Petite list used in FoFCou.
 Keep R1 ints in memory in canonical form, NReq=4993994.
 Requested convergence on RMS density matrix=1.00D-08 within 128 cycles.
 Requested convergence on MAX density matrix=1.00D-06.
 Requested convergence on             energy=1.00D-06.
 No special actions if energy rises.
 Integral accuracy reduced to 1.0D-05 until final iterations.
 EnCoef did     3 forward-backward iterations
 Rare condition: small coef for last iteration:  0.000D+00
 Rare condition: small coef for last iteration:  0.000D+00
 Initial convergence to 1.0D-05 achieved.  Increase integral accuracy.
 SCF Done:  E(RB3LYP) =  -562.479978339     A.U. after   26 cycles
            NFock= 26  Conv=0.37D-08     -V/T= 2.0128

 **********************************************************************

            Population analysis using the SCF density.

 **********************************************************************

 Orbital symmetries:
       Occupied  (A) (A) (A) (A) (A) (A) (A) (A) (A) (A) (A) (A)
                 (A) (A) (A) (A) (A) (A) (A) (A) (A) (A) (A) (A)
                 (A) (A) (A) (A) (A) (A) (A) (A) (A) (A) (A) (A)
                 (A) (A) (A) (A) (A) (A) (A) (A) (A) (A)
       Virtual   (A) (A) (A) (A) (A) (A) (A) (A) (A) (A) (A) (A)
                 (A) (A) (A) (A) (A) (A) (A) (A) (A) (A) (A) (A)
                 (A) (A) (A) (A) (A)
 The electronic state is 1-A.
 Alpha  occ. eigenvalues --  -14.00261 -13.96505  -9.91158  -9.90893  -9.88834
 Alpha  occ. eigenvalues --   -9.88173  -9.87851  -9.87489  -9.87317  -9.87041
 Alpha  occ. eigenvalues --   -9.86345  -9.82390  -9.79655  -9.63916  -0.75377
 Alpha  occ. eigenvalues --   -0.72344  -0.69294  -0.63417  -0.59551  -0.55310
 Alpha  occ. eigenvalues --   -0.52464  -0.44916  -0.43908  -0.41453  -0.37144
 Alpha  occ. eigenvalues --   -0.31663  -0.30308  -0.27888  -0.26691  -0.24571
 Alpha  occ. eigenvalues --   -0.22576  -0.22159  -0.19998  -0.19030  -0.17677
 Alpha  occ. eigenvalues --   -0.15829  -0.15762  -0.15543  -0.13630  -0.12864
 Alpha  occ. eigenvalues --   -0.11155  -0.10558  -0.08466  -0.03129   0.01072
 Alpha  occ. eigenvalues --    0.15199
 Alpha virt. eigenvalues --    0.16661   0.20922   0.24214   0.26413   0.29682
 Alpha virt. eigenvalues --    0.31342   0.36653   0.39116   0.44223   0.48274
 Alpha virt. eigenvalues --    0.48486   0.52340   0.55127   0.56945   0.58610
 Alpha virt. eigenvalues --    0.61589   0.63510   0.65361   0.68429   0.73543
 Alpha virt. eigenvalues --    0.74885   0.78170   0.80256   0.85656   0.88974
 Alpha virt. eigenvalues --    0.97973   0.99264   1.13398   1.16758
          Condensed to atoms (all electrons):
               1          2          3          4          5          6
     1  N    6.572308   0.688148  -0.000142  -0.011520  -0.000160  -0.000001
     2  C    0.688148   4.890001  -0.030228   0.429618  -0.032347   0.001047
     3  C   -0.000142  -0.030228   4.822325   0.505452  -0.031559  -0.012045
     4  C   -0.011520   0.429618   0.505452   4.758259   0.480495  -0.031146
     5  C   -0.000160  -0.032347  -0.031559   0.480495   4.828212   0.522248
     6  C   -0.000001   0.001047  -0.012045  -0.031146   0.522248   4.832750
     7  C    0.000000   0.000014  -0.029170  -0.010271  -0.029305   0.473556
     8  C   -0.000001   0.000903   0.486577  -0.027648  -0.009424  -0.028636
     9  C    0.000000  -0.000006  -0.027493   0.000778   0.000029   0.001008
    10  C    0.000000   0.000000   0.000694  -0.000006   0.000000   0.000043
    11  C    0.000000   0.000000   0.000013   0.000000  -0.000015   0.001102
    12  C    0.000000   0.000000   0.000972   0.000047   0.000972  -0.033762
    13  N    0.000000   0.000000  -0.000075   0.000000   0.000000   0.000000
    14  C    0.000000   0.000000  -0.004373   0.000016   0.000000  -0.000005
    15  H    0.000066  -0.003907   0.387828  -0.026731   0.001438   0.000053
    16  H    0.000061  -0.003796   0.001426  -0.025935   0.389896  -0.025683
    17  H    0.000000  -0.000021   0.000037   0.001504  -0.027868   0.390906
    18  H    0.000000   0.000000  -0.000019   0.000000   0.000000   0.000002
    19  H    0.000000   0.000000  -0.000023  -0.000001   0.000011  -0.004175
               7          8          9         10         11         12
     1  N    0.000000  -0.000001   0.000000   0.000000   0.000000   0.000000
     2  C    0.000014   0.000903  -0.000006   0.000000   0.000000   0.000000
     3  C   -0.029170   0.486577  -0.027493   0.000694   0.000013   0.000972
     4  C   -0.010271  -0.027648   0.000778  -0.000006   0.000000   0.000047
     5  C   -0.029305  -0.009424   0.000029   0.000000  -0.000015   0.000972
     6  C    0.473556  -0.028636   0.001008   0.000043   0.001102  -0.033762
     7  C    4.804992   0.466701  -0.030433  -0.012241  -0.027752   0.469280
     8  C    0.466701   4.784204   0.472688  -0.030551  -0.011739  -0.032133
     9  C   -0.030433   0.472688   4.811899   0.481090  -0.028353  -0.013539
    10  C   -0.012241  -0.030551   0.481090   4.875422   0.460183  -0.028801
    11  C   -0.027752  -0.011739  -0.028353   0.460183   5.437857   0.486906
    12  C    0.469280  -0.032133  -0.013539  -0.028801   0.486906   4.898885
    13  N   -0.000002  -0.000002  -0.011444  -0.000277  -0.000002   0.000000
    14  C    0.000920  -0.030626   0.421194  -0.031838   0.001148   0.000044
    15  H    0.001400  -0.024032  -0.003335   0.000017   0.000000  -0.000020
    16  H    0.001474   0.000032   0.000001   0.000000   0.000000  -0.000022
    17  H   -0.025598   0.001367  -0.000020   0.000001   0.000039  -0.004505
    18  H   -0.000052   0.001135  -0.033698   0.387634  -0.037933   0.002208
    19  H   -0.033315   0.001258  -0.000036   0.002234  -0.037497   0.387215
              13         14         15         16         17         18
     1  N    0.000000   0.000000   0.000066   0.000061   0.000000   0.000000
     2  C    0.000000   0.000000  -0.003907  -0.003796  -0.000021   0.000000
     3  C   -0.000075  -0.004373   0.387828   0.001426   0.000037  -0.000019
     4  C    0.000000   0.000016  -0.026731  -0.025935   0.001504   0.000000
     5  C    0.000000   0.000000   0.001438   0.389896  -0.027868   0.000000
     6  C    0.000000  -0.000005   0.000053  -0.025683   0.390906   0.000002
     7  C   -0.000002   0.000920   0.001400   0.001474  -0.025598  -0.000052
     8  C   -0.000002  -0.030626  -0.024032   0.000032   0.001367   0.001135
     9  C   -0.011444   0.421194  -0.003335   0.000001  -0.000020  -0.033698
    10  C   -0.000277  -0.031838   0.000017   0.000000   0.000001   0.387634
    11  C   -0.000002   0.001148   0.000000   0.000000   0.000039  -0.037933
    12  C    0.000000   0.000044  -0.000020  -0.000022  -0.004505   0.002208
    13  N    6.600420   0.682483  -0.000080   0.000000   0.000000   0.000108
    14  C    0.682483   4.916931   0.001373   0.000000   0.000000  -0.003989
    15  H   -0.000080   0.001373   0.587782  -0.000039   0.000002  -0.000001
    16  H    0.000000   0.000000  -0.000039   0.605453  -0.004043   0.000000
    17  H    0.000000   0.000000   0.000002  -0.004043   0.605863   0.000000
    18  H    0.000108  -0.003989  -0.000001   0.000000   0.000000   0.643541
    19  H    0.000000   0.000002   0.000001   0.000000   0.001321  -0.000007
              19
     1  N    0.000000
     2  C    0.000000
     3  C   -0.000023
     4  C   -0.000001
     5  C    0.000011
     6  C   -0.004175
     7  C   -0.033315
     8  C    0.001258
     9  C   -0.000036
    10  C    0.002234
    11  C   -0.037497
    12  C    0.387215
    13  N    0.000000
    14  C    0.000002
    15  H    0.000001
    16  H    0.000000
    17  H    0.001321
    18  H   -0.000007
    19  H    0.656967
 Mulliken charges:
               1
     1  N   -0.248759
     2  C    0.060573
     3  C   -0.070197
     4  C   -0.042909
     5  C   -0.092622
     6  C   -0.087261
     7  C   -0.020200
     8  C   -0.020072
     9  C   -0.040330
    10  C   -0.103603
    11  C   -0.243956
    12  C   -0.133746
    13  N   -0.271129
    14  C    0.046720
    15  H    0.078185
    16  H    0.061176
    17  H    0.061015
    18  H    0.041069
    19  H    0.026046
 Sum of Mulliken charges =  -1.00000
 Mulliken charges with hydrogens summed into heavy atoms:
               1
     1  N   -0.248759
     2  C    0.060573
     3  C    0.007989
     4  C   -0.042909
     5  C   -0.031446
     6  C   -0.026246
     7  C   -0.020200
     8  C   -0.020072
     9  C   -0.040330
    10  C   -0.062533
    11  C   -0.243956
    12  C   -0.107700
    13  N   -0.271129
    14  C    0.046720
 Electronic spatial extent (au):  <R**2>=           2700.8243
 Charge=             -1.0000 electrons
 Dipole moment (field-independent basis, Debye):
    X=             -3.8726    Y=             -1.5555    Z=             -0.0003  Tot=              4.1733
 Quadrupole moment (field-independent basis, Debye-Ang):
   XX=           -123.0802   YY=            -98.1382   ZZ=            -73.8136
   XY=             11.1923   XZ=              0.0033   YZ=              0.0018
 Traceless Quadrupole moment (field-independent basis, Debye-Ang):
   XX=            -24.7362   YY=              0.2058   ZZ=             24.5304
   XY=             11.1923   XZ=              0.0033   YZ=              0.0018
 Octapole moment (field-independent basis, Debye-Ang**2):
  XXX=             29.0849  YYY=            -48.3963  ZZZ=              0.0012  XYY=            -48.6604
  XXY=            -11.8156  XXZ=             -0.0170  XZZ=             -2.0034  YZZ=              4.8389
  YYZ=              0.0096  XYZ=              0.0111
 Hexadecapole moment (field-independent basis, Debye-Ang**3):
 XXXX=          -3013.9722 YYYY=          -1406.3096 ZZZZ=            -57.9771 XXXY=            304.8169
 XXXZ=              0.0717 YYYX=            -62.4557 YYYZ=              0.0271 ZZZX=             -0.0086
 ZZZY=             -0.0020 XXYY=           -746.5664 XXZZ=           -378.4967 YYZZ=           -205.8294
 XXYZ=             -0.0150 YYXZ=              0.0248 ZZXY=              0.9198
 N-N= 7.087145188521D+02 E-N=-2.739289446491D+03  KE= 5.553518832352D+02
 Calling FoFJK, ICntrl=      2127 FMM=F ISym2X=0 I1Cent= 0 IOpClX= 0 NMat=1 NMatS=1 NMatT=0.
 ***** Axes restored to original set *****
 -------------------------------------------------------------------
 Center     Atomic                   Forces (Hartrees/Bohr)
 Number     Number              X              Y              Z
 -------------------------------------------------------------------
      1        7          -0.103472323    0.000499304    0.000022667
      2        6           0.081458308   -0.002187043   -0.000009139
      3        6          -0.004150168   -0.005618314    0.000016991
      4        6          -0.004148762   -0.029066225   -0.000011130
      5        6           0.033823762    0.037491311    0.000029813
      6        6          -0.044650174    0.019715546    0.000014137
      7        6           0.015275692    0.026562805   -0.000076014
      8        6          -0.027382623   -0.005083641    0.000006116
      9        6           0.010712047   -0.034541193   -0.000023984
     10        6          -0.027008455    0.012327325    0.000029268
     11        6           0.083559860    0.028375906   -0.000008140
     12        6           0.011545197   -0.034240289   -0.000029634
     13        7          -0.040205216   -0.102246889    0.000022156
     14        6           0.020679053    0.087646658    0.000019146
     15        1          -0.001089233   -0.007271962   -0.000002702
     16        1          -0.006102369    0.004717415   -0.000001767
     17        1           0.006282603    0.004330031    0.000001474
     18        1          -0.001099080   -0.018331072   -0.000031192
     19        1          -0.004028119    0.016920327    0.000031934
 -------------------------------------------------------------------
 Cartesian Forces:  Max     0.103472323 RMS     0.031672340

 GradGradGradGradGradGradGradGradGradGradGradGradGradGradGradGradGradGrad
 Berny optimization.
 FormGI is forming the generalized inverse of G from B-inverse, IUseBI=4.
 Internal  Forces:  Max     0.109792113 RMS     0.021144038
 Search for a local minimum.
 Step number   1 out of a maximum of  102
 All quantities printed in internal units (Hartrees-Bohrs-Radians)
 Mixed Optimization -- RFO/linear search
 Second derivative matrix not updated -- first step.
 ITU=  0
     Eigenvalues ---    0.01635   0.01635   0.01853   0.01867   0.01918
     Eigenvalues ---    0.01937   0.01962   0.02028   0.02036   0.02100
     Eigenvalues ---    0.02105   0.02117   0.02119   0.02142   0.02171
     Eigenvalues ---    0.02191   0.04868   0.04868   0.16000   0.16000
     Eigenvalues ---    0.16000   0.16000   0.16000   0.22411   0.23242
     Eigenvalues ---    0.23497   0.23534   0.24625   0.25000   0.25000
     Eigenvalues ---    0.25000   0.34719   0.34890   0.34941   0.35032
     Eigenvalues ---    0.35033   0.38364   0.40037   0.40167   0.40374
     Eigenvalues ---    0.40617   0.42973   0.43491   0.45191   0.45234
     Eigenvalues ---    0.45340   0.46145   0.46453   0.47247   1.27596
     Eigenvalues ---    1.27872
 RFO step:  Lambda=-6.17531218D-02 EMin= 1.63471223D-02
 Linear search not attempted -- first point.
 Maximum step size (   0.300) exceeded in Quadratic search.
    -- Step size scaled by   0.816
 Iteration  1 RMS(Cart)=  0.04374906 RMS(Int)=  0.00103537
 Iteration  2 RMS(Cart)=  0.00154749 RMS(Int)=  0.00019068
 Iteration  3 RMS(Cart)=  0.00000094 RMS(Int)=  0.00019068
 Variable       Old X    -DE/DX   Delta X   Delta X   Delta X     New X
                                 (Linear)    (Quad)   (Total)
    R1        2.19265   0.10347   0.00000   0.06314   0.06314   2.25580
    R2        2.71048   0.02203   0.00000   0.03863   0.03863   2.74911
    R3        2.64952   0.00898   0.00000   0.01374   0.01367   2.66319
    R4        2.68316   0.00789   0.00000   0.01266   0.01261   2.69576
    R5        2.06133   0.00681   0.00000   0.01360   0.01360   2.07493
    R6        2.63305   0.04605   0.00000   0.07107   0.07105   2.70410
    R7        2.63480  -0.00427   0.00000  -0.00608  -0.00603   2.62877
    R8        2.05771   0.00715   0.00000   0.01419   0.01419   2.07190
    R9        2.65161   0.04061   0.00000   0.06517   0.06524   2.71685
   R10        2.05855   0.00676   0.00000   0.01344   0.01344   2.07198
   R11        2.68138   0.03584   0.00000   0.05973   0.05945   2.74083
   R12        2.64992   0.04068   0.00000   0.06503   0.06513   2.71505
   R13        2.68661   0.02313   0.00000   0.03834   0.03796   2.72457
   R14        2.65017   0.02303   0.00000   0.03614   0.03607   2.68624
   R15        2.71502   0.02133   0.00000   0.03767   0.03767   2.75270
   R16        2.62236   0.05434   0.00000   0.08250   0.08278   2.70514
   R17        2.05623   0.01455   0.00000   0.02882   0.02882   2.08505
   R18        2.62699   0.02474   0.00000   0.03838   0.03876   2.66575
   R19        2.05622   0.01288   0.00000   0.02552   0.02552   2.08174
   R20        2.19185   0.10979   0.00000   0.06686   0.06686   2.25872
    A1        2.12007   0.00006   0.00000  -0.00250  -0.00272   2.11734
    A2        2.06450   0.00282   0.00000   0.01173   0.01184   2.07634
    A3        2.09862  -0.00287   0.00000  -0.00923  -0.00912   2.08950
    A4        2.10462  -0.00254   0.00000  -0.00594  -0.00584   2.09878
    A5        2.08890   0.00177   0.00000   0.00534   0.00544   2.09434
    A6        2.08966   0.00078   0.00000   0.00059   0.00041   2.09007
    A7        2.09342  -0.00052   0.00000  -0.00115  -0.00121   2.09221
    A8        2.10593  -0.00273   0.00000  -0.01041  -0.01039   2.09554
    A9        2.08384   0.00324   0.00000   0.01156   0.01159   2.09543
   A10        2.11150   0.00435   0.00000   0.01383   0.01387   2.12537
   A11        2.06983   0.00147   0.00000   0.00650   0.00648   2.07631
   A12        2.10186  -0.00582   0.00000  -0.02033  -0.02034   2.08151
   A13        2.09749  -0.01254   0.00000  -0.03167  -0.03152   2.06597
   A14        2.09053   0.01703   0.00000   0.04554   0.04568   2.13621
   A15        2.09516  -0.00449   0.00000  -0.01387  -0.01416   2.08100
   A16        2.05423   0.00787   0.00000   0.02090   0.02117   2.07541
   A17        2.17028  -0.00596   0.00000  -0.01285  -0.01239   2.15789
   A18        2.05867  -0.00191   0.00000  -0.00805  -0.00878   2.04989
   A19        2.10818  -0.00577   0.00000  -0.01935  -0.01991   2.08828
   A20        2.12525  -0.00869   0.00000  -0.02063  -0.02035   2.10490
   A21        2.04975   0.01446   0.00000   0.03998   0.04025   2.09001
   A22        2.09902   0.02916   0.00000   0.08137   0.08153   2.18055
   A23        2.11122  -0.02610   0.00000  -0.08310  -0.08318   2.02804
   A24        2.07294  -0.00306   0.00000   0.00173   0.00165   2.07460
   A25        2.09286  -0.04078   0.00000  -0.10832  -0.10731   1.98554
   A26        2.11248   0.02379   0.00000   0.06821   0.06863   2.18111
   A27        2.10872  -0.02391   0.00000  -0.07833  -0.07854   2.03018
   A28        2.06199   0.00012   0.00000   0.01012   0.00991   2.07190
   A29        3.15722  -0.00030   0.00000  -0.00315  -0.00315   3.15406
   A30        3.15267   0.00894   0.00000   0.06606   0.06606   3.21873
   A31        3.14175  -0.00001   0.00000  -0.00012  -0.00012   3.14163
   A32        3.14206  -0.00006   0.00000  -0.00044  -0.00044   3.14162
    D1        3.14134   0.00001   0.00000   0.00007   0.00007   3.14141
    D2       -0.00013   0.00000   0.00000   0.00002   0.00002  -0.00012
    D3       -0.00011   0.00000   0.00000   0.00001   0.00001  -0.00009
    D4       -3.14158   0.00000   0.00000  -0.00004  -0.00004   3.14157
    D5       -0.00003  -0.00001   0.00000  -0.00004  -0.00004  -0.00007
    D6       -3.14121  -0.00001   0.00000  -0.00014  -0.00013  -3.14134
    D7        3.14141   0.00000   0.00000   0.00002   0.00002   3.14143
    D8        0.00023  -0.00001   0.00000  -0.00008  -0.00007   0.00016
    D9       -3.14143   0.00000   0.00000  -0.00002  -0.00002  -3.14145
   D10        0.00017   0.00000   0.00000  -0.00004  -0.00004   0.00013
   D11        0.00004   0.00000   0.00000   0.00003   0.00003   0.00007
   D12       -3.14154   0.00000   0.00000   0.00001   0.00001  -3.14153
   D13        0.00021  -0.00001   0.00000  -0.00006  -0.00006   0.00015
   D14        3.14127   0.00001   0.00000   0.00007   0.00007   3.14135
   D15       -3.14139   0.00000   0.00000  -0.00004  -0.00004  -3.14143
   D16       -0.00033   0.00001   0.00000   0.00009   0.00009  -0.00023
   D17       -0.00038   0.00000   0.00000   0.00004   0.00005  -0.00033
   D18        3.14075   0.00003   0.00000   0.00030   0.00030   3.14105
   D19       -3.14143  -0.00001   0.00000  -0.00009  -0.00009  -3.14152
   D20       -0.00031   0.00001   0.00000   0.00016   0.00017  -0.00014
   D21        0.00028   0.00000   0.00000   0.00000   0.00000   0.00028
   D22        3.14149   0.00001   0.00000   0.00009   0.00009   3.14158
   D23       -3.14084  -0.00003   0.00000  -0.00027  -0.00027  -3.14111
   D24        0.00037  -0.00002   0.00000  -0.00018  -0.00018   0.00019
   D25        3.14135  -0.00002   0.00000  -0.00015  -0.00016   3.14119
   D26       -0.00037   0.00001   0.00000   0.00009   0.00008  -0.00029
   D27       -0.00071   0.00000   0.00000   0.00010   0.00010  -0.00061
   D28        3.14076   0.00003   0.00000   0.00034   0.00033   3.14109
   D29        3.14119   0.00001   0.00000   0.00014   0.00014   3.14133
   D30       -0.00040   0.00001   0.00000   0.00011   0.00011  -0.00028
   D31        0.00001   0.00000   0.00000   0.00003   0.00004   0.00005
   D32       -3.14158   0.00000   0.00000   0.00001   0.00001  -3.14157
   D33       -0.00006   0.00002   0.00000   0.00014   0.00015   0.00009
   D34        3.14131   0.00002   0.00000   0.00017   0.00017   3.14149
   D35        3.14153   0.00002   0.00000   0.00017   0.00017  -3.14148
   D36       -0.00028   0.00002   0.00000   0.00020   0.00020  -0.00008
   D37       -0.00027  -0.00002   0.00000  -0.00017  -0.00017  -0.00044
   D38        3.14153  -0.00002   0.00000  -0.00019  -0.00018   3.14135
   D39        0.00066   0.00000   0.00000   0.00005   0.00004   0.00070
   D40       -3.14081  -0.00002   0.00000  -0.00018  -0.00019  -3.14100
         Item               Value     Threshold  Converged?
 Maximum Force            0.109792     0.000450     NO 
 RMS     Force            0.021144     0.000300     NO 
 Maximum Displacement     0.233935     0.001800     NO 
 RMS     Displacement     0.043339     0.001200     NO 
 Predicted change in Energy=-3.260979D-02
 GradGradGradGradGradGradGradGradGradGradGradGradGradGradGradGradGradGrad

                          Input orientation:                          
 ---------------------------------------------------------------------
 Center     Atomic      Atomic             Coordinates (Angstroms)
 Number     Number       Type             X           Y           Z
 ---------------------------------------------------------------------
      1          7           0        1.093736   -0.095385    0.089745
      2          6           0        2.287420   -0.086735    0.089384
      3          6           0        4.475755   -1.261212    0.088533
      4          6           0        3.741904   -0.058055    0.088996
      5          6           0        4.432734    1.195087    0.088995
      6          6           0        5.823606    1.219559    0.088448
      7          6           0        6.602046    0.010844    0.087687
      8          6           0        5.902291   -1.259575    0.087919
      9          6           0        6.702329   -2.459019    0.087129
     10          6           0        8.120266   -2.358520    0.086230
     11          6           0        8.855013   -1.129973    0.086131
     12          6           0        8.038755    0.020536    0.086459
     13          7           0        5.637070   -4.885453    0.087383
     14          6           0        6.070762   -3.771649    0.087270
     15          1           0        3.932507   -2.215412    0.088563
     16          1           0        3.866945    2.134224    0.089413
     17          1           0        6.337607    2.188062    0.088220
     18          1           0        8.676150   -3.311621    0.085759
     19          1           0        8.520533    1.011207    0.085837
 ---------------------------------------------------------------------
                    Distance matrix (angstroms):
                    1          2          3          4          5
     1  N    0.000000
     2  C    1.193716   0.000000
     3  C    3.577319   2.483588   0.000000
     4  C    2.648431   1.454767   1.409299   0.000000
     5  C    3.579697   2.499088   2.456676   1.430948   0.000000
     6  C    4.909251   3.769750   2.823282   2.442495   1.391087
     7  C    5.509335   4.315730   2.477749   2.860972   2.471507
     8  C    4.947479   3.800375   1.426537   2.472028   2.860938
     9  C    6.086303   5.011901   2.528314   3.811659   4.301576
    10  C    7.381999   6.259641   3.806120   4.945927   5.121135
    11  C    7.829930   6.649935   4.381224   5.224261   4.996245
    12  C    6.945987   5.752336   3.786535   4.297571   3.792488
    13  N    6.602018   5.852166   3.805756   5.186080   6.198661
    14  C    6.187545   5.281314   2.974280   4.383419   5.229877
    15  H    3.543041   2.690275   1.098006   2.165761   3.446989
    16  H    3.558348   2.725354   3.449584   2.195842   1.096401
    17  H    5.719468   4.645289   3.919691   3.432596   2.148147
    18  H    8.236333   7.156519   4.674131   5.910370   6.190073
    19  H    7.508787   6.329075   4.639410   4.896798   4.091934
                    6          7          8          9         10
     6  C    0.000000
     7  C    1.437693   0.000000
     8  C    2.480382   1.450387   0.000000
     9  C    3.782075   2.471898   1.441779   0.000000
    10  C    4.251741   2.814050   2.475297   1.421495   0.000000
    11  C    3.835327   2.525336   2.955565   2.529904   1.431496
    12  C    2.518838   1.436742   2.490615   2.816777   2.380452
    13  N    6.107861   4.990481   3.635565   2.649973   3.542831
    14  C    4.997324   3.819623   2.517717   1.456665   2.489458
    15  H    3.921132   3.476012   2.189446   2.780514   4.190204
    16  H    2.159892   3.462589   3.957336   5.397896   6.186719
    17  H    1.096447   2.193218   3.475011   4.661372   4.883573
    18  H    5.354307   3.916718   3.450389   2.150093   1.103362
    19  H    2.704965   2.163636   3.465783   3.917696   3.393416
                   11         12         13         14         15
    11  C    0.000000
    12  C    1.410655   0.000000
    13  N    4.945583   5.462309   0.000000
    14  C    3.838034   4.272431   1.195261   0.000000
    15  H    5.040759   4.675547   3.167752   2.644619   0.000000
    16  H    5.961192   4.676717   7.239420   6.303662   4.350130
    17  H    4.164936   2.755373   7.108119   5.965682   5.017478
    18  H    2.188968   3.392571   3.422419   2.645689   4.868657
    19  H    2.167147   1.101608   6.563914   5.373741   5.609016
                   16         17         18         19
    16  H    0.000000
    17  H    2.471249   0.000000
    18  H    7.265376   5.976228   0.000000
    19  H    4.787177   2.479952   4.325628   0.000000
 Stoichiometry    C12H5N2(1-)
 Framework group  C1[X(C12H5N2)]
 Deg. of freedom    51
 Full point group                 C1      NOp   1
 Largest Abelian subgroup         C1      NOp   1
 Largest concise Abelian subgroup C1      NOp   1
                         Standard orientation:                         
 ---------------------------------------------------------------------
 Center     Atomic      Atomic             Coordinates (Angstroms)
 Number     Number       Type             X           Y           Z
 ---------------------------------------------------------------------
      1          7           0       -4.384954    1.223154    0.000416
      2          6           0       -3.330814    0.663023    0.000204
      3          6           0       -0.847388    0.691332   -0.000175
      4          6           0       -2.054758   -0.035566   -0.000102
      5          6           0       -2.022351   -1.466147   -0.000243
      6          6           0       -0.800737   -2.131564   -0.000362
      7          6           0        0.448732   -1.420376   -0.000158
      8          6           0        0.416410    0.029651   -0.000246
      9          6           0        1.680733    0.722626   -0.000023
     10          6           0        2.891153   -0.022714    0.000209
     11          6           0        2.973873   -1.451818    0.000141
     12          6           0        1.717820   -2.093907    0.000381
     13          7           0        1.859437    3.366566   -0.000133
     14          6           0        1.728393    2.178511   -0.000060
     15          1           0       -0.887326    1.788612   -0.000089
     16          1           0       -2.958548   -2.036787   -0.000247
     17          1           0       -0.793343   -3.227986   -0.000234
     18          1           0        3.825032    0.564889    0.000268
     19          1           0        1.686390   -3.195066    0.000921
 ---------------------------------------------------------------------
 Rotational constants (GHZ):      1.0877052      0.5548589      0.3674273
 Standard basis: STO-3G (5D, 7F)
 There are    75 symmetry adapted cartesian basis functions of A   symmetry.
 There are    75 symmetry adapted basis functions of A   symmetry.
    75 basis functions,   225 primitive gaussians,    75 cartesian basis functions
    46 alpha electrons       46 beta electrons
       nuclear repulsion energy       697.4650610778 Hartrees.
 NAtoms=   19 NActive=   19 NUniq=   19 SFac= 1.00D+00 NAtFMM=   60 NAOKFM=F Big=F
 Integral buffers will be    131072 words long.
 Raffenetti 2 integral format.
 Two-electron integral symmetry is turned on.
 One-electron integrals computed using PRISM.
 NBasis=    75 RedAO= T EigKep=  1.72D-01  NBF=    75
 NBsUse=    75 1.00D-06 EigRej= -1.00D+00 NBFU=    75
 Initial guess from the checkpoint file:  "/tmp/bnp.472649.sequoia/Gau-19264.chk"
 B after Tr=     0.000000    0.000000    0.000000
         Rot=    0.999968    0.000001    0.000000   -0.007941 Ang=   0.91 deg.
 ExpMin= 1.69D-01 ExpMax= 9.91D+01 ExpMxC= 9.91D+01 IAcc=1 IRadAn=         1 AccDes= 0.00D+00
 Harris functional with IExCor=  402 and IRadAn=       1 diagonalized for initial guess.
 HarFok:  IExCor=  402 AccDes= 0.00D+00 IRadAn=         1 IDoV= 1 UseB2=F ITyADJ=14
 ICtDFT=  3500011 ScaDFX=  1.000000  1.000000  1.000000  1.000000
 FoFCou: FMM=F IPFlag=           0 FMFlag=      100000 FMFlg1=           0
         NFxFlg=           0 DoJE=T BraDBF=F KetDBF=T FulRan=T
         wScrn=  0.000000 ICntrl=     500 IOpCl=  0 I1Cent=   200000004 NGrid=           0
         NMat0=    1 NMatS0=      1 NMatT0=    0 NMatD0=    1 NMtDS0=    0 NMtDT0=    0
 Petite list used in FoFCou.
 Keep R1 ints in memory in canonical form, NReq=4993994.
 Requested convergence on RMS density matrix=1.00D-08 within 128 cycles.
 Requested convergence on MAX density matrix=1.00D-06.
 Requested convergence on             energy=1.00D-06.
 No special actions if energy rises.
 Integral accuracy reduced to 1.0D-05 until final iterations.
 Initial convergence to 1.0D-05 achieved.  Increase integral accuracy.
 SCF Done:  E(RB3LYP) =  -562.510770539     A.U. after   18 cycles
            NFock= 18  Conv=0.76D-08     -V/T= 2.0139
 Calling FoFJK, ICntrl=      2127 FMM=F ISym2X=0 I1Cent= 0 IOpClX= 0 NMat=1 NMatS=1 NMatT=0.
 ***** Axes restored to original set *****
 -------------------------------------------------------------------
 Center     Atomic                   Forces (Hartrees/Bohr)
 Number     Number              X              Y              Z
 -------------------------------------------------------------------
      1        7          -0.014813154   -0.000243415    0.000002320
      2        6           0.011027433    0.000443094    0.000004822
      3        6          -0.002624793    0.001897681    0.000006314
      4        6          -0.000846479   -0.009583599    0.000001246
      5        6           0.013915356    0.009335452    0.000003183
      6        6          -0.016365276    0.001218412   -0.000015359
      7        6           0.009041097    0.008918612   -0.000010298
      8        6          -0.008668036    0.004269075    0.000004092
      9        6           0.011440755   -0.012324924   -0.000036279
     10        6          -0.021395828    0.001545802    0.000058988
     11        6           0.034415585    0.009680448   -0.000078649
     12        6          -0.007808132   -0.012829409    0.000039731
     13        7          -0.005486673   -0.014131670    0.000004723
     14        6           0.001890904    0.012360011   -0.000014807
     15        1           0.000734586   -0.001688193   -0.000000731
     16        1          -0.002414306   -0.000178940   -0.000002489
     17        1           0.002755633    0.000586747    0.000008523
     18        1          -0.001571437   -0.004158139    0.000018076
     19        1          -0.003227235    0.004882952    0.000006592
 -------------------------------------------------------------------
 Cartesian Forces:  Max     0.034415585 RMS     0.008327846

 GradGradGradGradGradGradGradGradGradGradGradGradGradGradGradGradGradGrad
 Berny optimization.
 Using GEDIIS/GDIIS optimizer.
 FormGI is forming the generalized inverse of G from B-inverse, IUseBI=4.
 Internal  Forces:  Max     0.019987294 RMS     0.004787787
 Search for a local minimum.
 Step number   2 out of a maximum of  102
 All quantities printed in internal units (Hartrees-Bohrs-Radians)
 Mixed Optimization -- RFO/linear search
 Update second derivatives using D2CorX and points    1    2
 DE= -3.08D-02 DEPred=-3.26D-02 R= 9.44D-01
 TightC=F SS=  1.41D+00  RLast= 3.00D-01 DXNew= 5.0454D-01 8.9995D-01
 Trust test= 9.44D-01 RLast= 3.00D-01 DXMaxT set to 5.05D-01
 ITU=  1  0
 Use linear search instead of GDIIS.
     Eigenvalues ---    0.01635   0.01635   0.01854   0.01867   0.01920
     Eigenvalues ---    0.01940   0.01966   0.02034   0.02038   0.02101
     Eigenvalues ---    0.02109   0.02117   0.02123   0.02142   0.02171
     Eigenvalues ---    0.02184   0.04868   0.04952   0.15868   0.16000
     Eigenvalues ---    0.16000   0.16000   0.16075   0.22085   0.22420
     Eigenvalues ---    0.23475   0.23523   0.24560   0.24974   0.25000
     Eigenvalues ---    0.25144   0.34730   0.34887   0.34950   0.35030
     Eigenvalues ---    0.35101   0.38643   0.40125   0.40245   0.40509
     Eigenvalues ---    0.40751   0.42989   0.43277   0.44451   0.45220
     Eigenvalues ---    0.45336   0.46372   0.47063   0.49730   1.27714
     Eigenvalues ---    1.33574
 RFO step:  Lambda=-2.98028475D-03 EMin= 1.63469782D-02
 Quartic linear search produced a step of  0.35909.
 Iteration  1 RMS(Cart)=  0.02156477 RMS(Int)=  0.00059670
 Iteration  2 RMS(Cart)=  0.00090963 RMS(Int)=  0.00021251
 Iteration  3 RMS(Cart)=  0.00000020 RMS(Int)=  0.00021251
 Variable       Old X    -DE/DX   Delta X   Delta X   Delta X     New X
                                 (Linear)    (Quad)   (Total)
    R1        2.25580   0.01481   0.02267  -0.00981   0.01286   2.26865
    R2        2.74911   0.00378   0.01387  -0.00361   0.01026   2.75937
    R3        2.66319  -0.00178   0.00491  -0.01085  -0.00597   2.65722
    R4        2.69576   0.00070   0.00453  -0.00321   0.00127   2.69703
    R5        2.07493   0.00110   0.00488  -0.00149   0.00340   2.07833
    R6        2.70410   0.00984   0.02551  -0.00094   0.02460   2.72870
    R7        2.62877  -0.00570  -0.00216  -0.01385  -0.01597   2.61280
    R8        2.07190   0.00109   0.00509  -0.00180   0.00329   2.07519
    R9        2.71685   0.00676   0.02343  -0.00718   0.01627   2.73312
   R10        2.07198   0.00181   0.00483   0.00129   0.00612   2.07810
   R11        2.74083   0.00414   0.02135  -0.01299   0.00800   2.74883
   R12        2.71505   0.00345   0.02339  -0.01711   0.00638   2.72143
   R13        2.72457   0.00704   0.01363   0.00595   0.01916   2.74373
   R14        2.68624  -0.00247   0.01295  -0.02222  -0.00933   2.67691
   R15        2.75270   0.00316   0.01353  -0.00521   0.00832   2.76102
   R16        2.70514   0.01999   0.02973   0.02283   0.05287   2.75801
   R17        2.08505   0.00280   0.01035  -0.00144   0.00891   2.09396
   R18        2.66575   0.00983   0.01392   0.01246   0.02678   2.69253
   R19        2.08174   0.00298   0.00916   0.00064   0.00980   2.09154
   R20        2.25872   0.01516   0.02401  -0.01098   0.01302   2.27174
    A1        2.11734  -0.00039  -0.00098  -0.00215  -0.00331   2.11403
    A2        2.07634   0.00172   0.00425   0.00904   0.01338   2.08972
    A3        2.08950  -0.00133  -0.00327  -0.00689  -0.01007   2.07943
    A4        2.09878   0.00058  -0.00210   0.00569   0.00364   2.10242
    A5        2.09434   0.00011   0.00195  -0.00174   0.00027   2.09461
    A6        2.09007  -0.00069   0.00015  -0.00395  -0.00392   2.08616
    A7        2.09221   0.00019  -0.00043   0.00150   0.00103   2.09324
    A8        2.09554  -0.00233  -0.00373  -0.01438  -0.01809   2.07745
    A9        2.09543   0.00214   0.00416   0.01289   0.01707   2.11249
   A10        2.12537   0.00201   0.00498   0.00495   0.00989   2.13526
   A11        2.07631   0.00124   0.00233   0.01009   0.01243   2.08874
   A12        2.08151  -0.00324  -0.00731  -0.01503  -0.02232   2.05919
   A13        2.06597  -0.00403  -0.01132  -0.00753  -0.01877   2.04720
   A14        2.13621   0.00451   0.01640   0.00758   0.02422   2.16043
   A15        2.08100  -0.00048  -0.00508  -0.00005  -0.00545   2.07556
   A16        2.07541   0.00290   0.00760   0.00720   0.01508   2.09049
   A17        2.15789  -0.00112  -0.00445   0.00287  -0.00103   2.15685
   A18        2.04989  -0.00179  -0.00315  -0.01006  -0.01405   2.03584
   A19        2.08828  -0.00090  -0.00715   0.00055  -0.00721   2.08106
   A20        2.10490  -0.00294  -0.00731  -0.00535  -0.01234   2.09256
   A21        2.09001   0.00385   0.01445   0.00479   0.01956   2.10956
   A22        2.18055   0.01053   0.02928   0.02738   0.05683   2.23738
   A23        2.02804  -0.00887  -0.02987  -0.02442  -0.05438   1.97366
   A24        2.07460  -0.00166   0.00059  -0.00295  -0.00245   2.07215
   A25        1.98554  -0.01810  -0.03854  -0.05076  -0.08813   1.89741
   A26        2.18111   0.01074   0.02464   0.03294   0.05802   2.23912
   A27        2.03018  -0.01061  -0.02820  -0.04005  -0.06846   1.96172
   A28        2.07190  -0.00013   0.00356   0.00711   0.01045   2.08234
   A29        3.15406  -0.00030  -0.00113  -0.01827  -0.01940   3.13466
   A30        3.21873   0.00003   0.02372  -0.03746  -0.01374   3.20499
   A31        3.14163   0.00000  -0.00004  -0.00018  -0.00022   3.14141
   A32        3.14162   0.00001  -0.00016   0.00044   0.00029   3.14191
    D1        3.14141   0.00000   0.00002   0.00018   0.00020  -3.14158
    D2       -0.00012   0.00000   0.00001   0.00017   0.00018   0.00006
    D3       -0.00009   0.00000   0.00000   0.00004   0.00004  -0.00006
    D4        3.14157   0.00000  -0.00001   0.00003   0.00002   3.14158
    D5       -0.00007   0.00000  -0.00001   0.00005   0.00004  -0.00003
    D6       -3.14134   0.00000  -0.00005  -0.00025  -0.00030   3.14154
    D7        3.14143   0.00000   0.00001   0.00019   0.00020  -3.14155
    D8        0.00016   0.00000  -0.00003  -0.00011  -0.00014   0.00001
    D9       -3.14145   0.00000  -0.00001  -0.00016  -0.00017   3.14157
   D10        0.00013   0.00000  -0.00001  -0.00009  -0.00010   0.00003
   D11        0.00007   0.00000   0.00001  -0.00016  -0.00015  -0.00007
   D12       -3.14153   0.00000   0.00000  -0.00009  -0.00008   3.14157
   D13        0.00015   0.00000  -0.00002  -0.00008  -0.00010   0.00005
   D14        3.14135   0.00001   0.00003   0.00031   0.00035  -3.14149
   D15       -3.14143   0.00000  -0.00001  -0.00015  -0.00017   3.14159
   D16       -0.00023   0.00001   0.00003   0.00025   0.00028   0.00005
   D17       -0.00033   0.00001   0.00002   0.00030   0.00031  -0.00002
   D18        3.14105   0.00001   0.00011   0.00010   0.00022   3.14127
   D19       -3.14152   0.00000  -0.00003  -0.00010  -0.00014   3.14153
   D20       -0.00014   0.00000   0.00006  -0.00030  -0.00023  -0.00037
   D21        0.00028   0.00000   0.00000  -0.00028  -0.00028   0.00001
   D22        3.14158   0.00000   0.00003   0.00000   0.00004  -3.14156
   D23       -3.14111  -0.00001  -0.00010  -0.00009  -0.00019  -3.14129
   D24        0.00019   0.00000  -0.00006   0.00019   0.00013   0.00032
   D25        3.14119   0.00000  -0.00006   0.00032   0.00028   3.14147
   D26       -0.00029   0.00000   0.00003  -0.00014  -0.00010  -0.00039
   D27       -0.00061   0.00000   0.00004   0.00012   0.00018  -0.00043
   D28        3.14109   0.00000   0.00012  -0.00034  -0.00020   3.14089
   D29        3.14133   0.00001   0.00005   0.00065   0.00069  -3.14117
   D30       -0.00028   0.00001   0.00004   0.00025   0.00027  -0.00001
   D31        0.00005   0.00001   0.00001   0.00036   0.00035   0.00040
   D32       -3.14157   0.00000   0.00000  -0.00005  -0.00006   3.14156
   D33        0.00009  -0.00002   0.00005  -0.00132  -0.00130  -0.00121
   D34        3.14149  -0.00001   0.00006  -0.00080  -0.00076   3.14073
   D35       -3.14148  -0.00001   0.00006  -0.00091  -0.00088   3.14083
   D36       -0.00008   0.00000   0.00007  -0.00040  -0.00034  -0.00042
   D37       -0.00044   0.00003  -0.00006   0.00156   0.00149   0.00106
   D38        3.14135   0.00002  -0.00007   0.00103   0.00093  -3.14090
   D39        0.00070  -0.00002   0.00002  -0.00095  -0.00091  -0.00021
   D40       -3.14100  -0.00001  -0.00007  -0.00048  -0.00051  -3.14151
         Item               Value     Threshold  Converged?
 Maximum Force            0.019987     0.000450     NO 
 RMS     Force            0.004788     0.000300     NO 
 Maximum Displacement     0.138861     0.001800     NO 
 RMS     Displacement     0.021446     0.001200     NO 
 Predicted change in Energy=-3.229839D-03
 GradGradGradGradGradGradGradGradGradGradGradGradGradGradGradGradGradGrad

                          Input orientation:                          
 ---------------------------------------------------------------------
 Center     Atomic      Atomic             Coordinates (Angstroms)
 Number     Number       Type             X           Y           Z
 ---------------------------------------------------------------------
      1          7           0        1.079296   -0.117151    0.090187
      2          6           0        2.279453   -0.087604    0.089754
      3          6           0        4.473564   -1.261061    0.088267
      4          6           0        3.739421   -0.061783    0.089001
      5          6           0        4.439447    1.201150    0.088949
      6          6           0        5.821897    1.223705    0.088264
      7          6           0        6.615446    0.014541    0.087522
      8          6           0        5.900745   -1.252393    0.087541
      9          6           0        6.711106   -2.457127    0.086831
     10          6           0        8.122921   -2.341290    0.086668
     11          6           0        8.928495   -1.124280    0.085745
     12          6           0        8.055507    0.001786    0.086408
     13          7           0        5.605587   -4.878598    0.087195
     14          6           0        6.066526   -3.768325    0.086851
     15          1           0        3.943820   -2.224876    0.088313
     16          1           0        3.857979    2.132715    0.089507
     17          1           0        6.350684    2.187910    0.088323
     18          1           0        8.639248   -3.321716    0.086993
     19          1           0        8.486287    1.021306    0.085785
 ---------------------------------------------------------------------
                    Distance matrix (angstroms):
                    1          2          3          4          5
     1  N    0.000000
     2  C    1.200520   0.000000
     3  C    3.581841   2.488198   0.000000
     4  C    2.660701   1.460196   1.406142   0.000000
     5  C    3.609506   2.515246   2.462447   1.443965   0.000000
     6  C    4.928505   3.777359   2.827024   2.447282   1.382635
     7  C    5.537717   4.337197   2.492954   2.877039   2.478511
     8  C    4.953297   3.804011   1.427208   2.467566   2.855743
     9  C    6.098588   5.025355   2.537158   3.816883   4.306208
    10  C    7.386437   6.263004   3.805877   4.940772   5.110466
    11  C    7.913548   6.729374   4.457031   5.296735   5.055609
    12  C    6.977226   5.776747   3.798039   4.316555   3.809773
    13  N    6.569528   5.832392   3.790521   5.165684   6.190575
    14  C    6.180902   5.281064   2.970505   4.376515   5.229060
    15  H    3.556403   2.708884   1.099803   2.172729   3.461690
    16  H    3.575329   2.724254   3.449154   2.197698   1.098144
    17  H    5.753332   4.663999   3.926701   3.446710   2.150935
    18  H    8.211098   7.134878   4.647497   5.885192   6.172086
    19  H    7.493972   6.305116   4.616401   4.868864   4.050836
                    6          7          8          9         10
     6  C    0.000000
     7  C    1.446305   0.000000
     8  C    2.477353   1.454620   0.000000
     9  C    3.786716   2.473518   1.451919   0.000000
    10  C    4.243100   2.796858   2.474623   1.416559   0.000000
    11  C    3.894096   2.578199   3.030459   2.587141   1.459474
    12  C    2.545997   1.440118   2.493184   2.802440   2.344045
    13  N    6.106135   4.996261   3.638197   2.661896   3.574199
    14  C    4.998020   3.822484   2.521388   1.461069   2.503036
    15  H    3.926816   3.486054   2.185241   2.777015   4.180722
    16  H    2.164088   3.477110   3.953715   5.404350   6.181137
    17  H    1.099685   2.189437   3.469601   4.659000   4.863587
    18  H    5.347740   3.902100   3.432418   2.113113   1.108075
    19  H    2.672067   2.124529   3.443071   3.905223   3.382172
                   11         12         13         14         15
    11  C    0.000000
    12  C    1.424827   0.000000
    13  N    5.013644   5.460792   0.000000
    14  C    3.896388   4.262602   1.202153   0.000000
    15  H    5.104733   4.675895   3.131088   2.624523   0.000000
    16  H    6.026455   4.707453   7.225832   6.300791   4.358437
    17  H    4.197109   2.772285   7.105681   5.963010   5.026497
    18  H    2.216392   3.374377   3.409836   2.611199   4.821836
    19  H    2.190682   1.106794   6.565615   5.366173   5.583163
                   16         17         18         19
    16  H    0.000000
    17  H    2.493316   0.000000
    18  H    7.253369   5.966030   0.000000
    19  H    4.759882   2.433469   4.345715   0.000000
 Stoichiometry    C12H5N2(1-)
 Framework group  C1[X(C12H5N2)]
 Deg. of freedom    51
 Full point group                 C1      NOp   1
 Largest Abelian subgroup         C1      NOp   1
 Largest concise Abelian subgroup C1      NOp   1
                         Standard orientation:                         
 ---------------------------------------------------------------------
 Center     Atomic      Atomic             Coordinates (Angstroms)
 Number     Number       Type             X           Y           Z
 ---------------------------------------------------------------------
      1          7           0       -4.407665    1.185997    0.000147
      2          6           0       -3.349016    0.619860   -0.000047
      3          6           0       -0.861574    0.681192    0.000078
      4          6           0       -2.056637   -0.059795   -0.000059
      5          6           0       -1.999377   -1.502624   -0.000152
      6          6           0       -0.774765   -2.144499   -0.000192
      7          6           0        0.477803   -1.421400   -0.000080
      8          6           0        0.409236    0.031603    0.000054
      9          6           0        1.674826    0.743185    0.000125
     10          6           0        2.883713    0.004787   -0.000434
     11          6           0        3.055898   -1.444494    0.000279
     12          6           0        1.769750   -2.057647    0.000274
     13          7           0        1.776425    3.403142   -0.000082
     14          6           0        1.688796    2.204187    0.000214
     15          1           0       -0.901265    1.780279    0.000142
     16          1           0       -2.937677   -2.073161   -0.000241
     17          1           0       -0.736105   -3.243504   -0.000359
     18          1           0        3.785806    0.648261   -0.001204
     19          1           0        1.695998   -3.161981    0.000849
 ---------------------------------------------------------------------
 Rotational constants (GHZ):      1.0803409      0.5522254      0.3654318
 Standard basis: STO-3G (5D, 7F)
 There are    75 symmetry adapted cartesian basis functions of A   symmetry.
 There are    75 symmetry adapted basis functions of A   symmetry.
    75 basis functions,   225 primitive gaussians,    75 cartesian basis functions
    46 alpha electrons       46 beta electrons
       nuclear repulsion energy       695.2458776709 Hartrees.
 NAtoms=   19 NActive=   19 NUniq=   19 SFac= 1.00D+00 NAtFMM=   60 NAOKFM=F Big=F
 Integral buffers will be    131072 words long.
 Raffenetti 2 integral format.
 Two-electron integral symmetry is turned on.
 One-electron integrals computed using PRISM.
 NBasis=    75 RedAO= T EigKep=  1.76D-01  NBF=    75
 NBsUse=    75 1.00D-06 EigRej= -1.00D+00 NBFU=    75
 Initial guess from the checkpoint file:  "/tmp/bnp.472649.sequoia/Gau-19264.chk"
 B after Tr=     0.000000    0.000000    0.000000
         Rot=    0.999973    0.000000    0.000000   -0.007370 Ang=   0.84 deg.
 ExpMin= 1.69D-01 ExpMax= 9.91D+01 ExpMxC= 9.91D+01 IAcc=1 IRadAn=         1 AccDes= 0.00D+00
 Harris functional with IExCor=  402 and IRadAn=       1 diagonalized for initial guess.
 HarFok:  IExCor=  402 AccDes= 0.00D+00 IRadAn=         1 IDoV= 1 UseB2=F ITyADJ=14
 ICtDFT=  3500011 ScaDFX=  1.000000  1.000000  1.000000  1.000000
 FoFCou: FMM=F IPFlag=           0 FMFlag=      100000 FMFlg1=           0
         NFxFlg=           0 DoJE=T BraDBF=F KetDBF=T FulRan=T
         wScrn=  0.000000 ICntrl=     500 IOpCl=  0 I1Cent=   200000004 NGrid=           0
         NMat0=    1 NMatS0=      1 NMatT0=    0 NMatD0=    1 NMtDS0=    0 NMtDT0=    0
 Petite list used in FoFCou.
 Keep R1 ints in memory in canonical form, NReq=4993994.
 Requested convergence on RMS density matrix=1.00D-08 within 128 cycles.
 Requested convergence on MAX density matrix=1.00D-06.
 Requested convergence on             energy=1.00D-06.
 No special actions if energy rises.
 Integral accuracy reduced to 1.0D-05 until final iterations.
 Initial convergence to 1.0D-05 achieved.  Increase integral accuracy.
 SCF Done:  E(RB3LYP) =  -562.514278190     A.U. after   17 cycles
            NFock= 17  Conv=0.17D-08     -V/T= 2.0140
 Calling FoFJK, ICntrl=      2127 FMM=F ISym2X=0 I1Cent= 0 IOpClX= 0 NMat=1 NMatS=1 NMatT=0.
 ***** Axes restored to original set *****
 -------------------------------------------------------------------
 Center     Atomic                   Forces (Hartrees/Bohr)
 Number     Number              X              Y              Z
 -------------------------------------------------------------------
      1        7           0.000991859    0.000651437    0.000005797
      2        6          -0.000058343   -0.000860689   -0.000010053
      3        6          -0.000151264   -0.000206260   -0.000003395
      4        6          -0.001346947   -0.000466782    0.000004542
      5        6           0.000354114    0.000609037   -0.000003082
      6        6           0.000809825    0.001317570    0.000008261
      7        6           0.000870922   -0.003335713    0.000038358
      8        6          -0.002174200    0.001152161   -0.000013170
      9        6           0.003249571    0.000698110   -0.000006258
     10        6          -0.006809296   -0.008320008    0.000008719
     11        6           0.004150718    0.003717731   -0.000027202
     12        6          -0.003201051    0.004531492    0.000004428
     13        7           0.000468065    0.001891886   -0.000004425
     14        6          -0.000053014   -0.001298745   -0.000001614
     15        1           0.000240005    0.000193828   -0.000001164
     16        1           0.000029166   -0.000367080   -0.000002933
     17        1          -0.000113073   -0.000263081   -0.000000656
     18        1           0.001438645    0.000632715    0.000019388
     19        1           0.001304298   -0.000277609   -0.000015541
 -------------------------------------------------------------------
 Cartesian Forces:  Max     0.008320008 RMS     0.001980598

 GradGradGradGradGradGradGradGradGradGradGradGradGradGradGradGradGradGrad
 Berny optimization.
 Using GEDIIS/GDIIS optimizer.
 FormGI is forming the generalized inverse of G from B-inverse, IUseBI=4.
 Internal  Forces:  Max     0.006375732 RMS     0.000969825
 Search for a local minimum.
 Step number   3 out of a maximum of  102
 All quantities printed in internal units (Hartrees-Bohrs-Radians)
 Mixed Optimization -- En-DIIS/RFO-DIIS
 Update second derivatives using D2CorX and points    1    2    3
 DE= -3.51D-03 DEPred=-3.23D-03 R= 1.09D+00
 TightC=F SS=  1.41D+00  RLast= 1.80D-01 DXNew= 8.4853D-01 5.3956D-01
 Trust test= 1.09D+00 RLast= 1.80D-01 DXMaxT set to 5.40D-01
 ITU=  1  1  0
 Use linear search instead of GDIIS.
     Eigenvalues ---    0.01635   0.01643   0.01854   0.01867   0.01922
     Eigenvalues ---    0.01942   0.01968   0.02037   0.02040   0.02102
     Eigenvalues ---    0.02113   0.02117   0.02126   0.02142   0.02171
     Eigenvalues ---    0.02178   0.04868   0.04959   0.15763   0.16000
     Eigenvalues ---    0.16000   0.16003   0.16474   0.21511   0.22520
     Eigenvalues ---    0.23458   0.23542   0.24491   0.24977   0.25001
     Eigenvalues ---    0.25374   0.34732   0.34859   0.34941   0.34961
     Eigenvalues ---    0.35039   0.38508   0.39875   0.40157   0.40237
     Eigenvalues ---    0.40623   0.41096   0.42987   0.43633   0.45223
     Eigenvalues ---    0.45358   0.46453   0.47017   0.49781   1.27693
     Eigenvalues ---    1.35524
 RFO step:  Lambda=-3.48258637D-04 EMin= 1.63471220D-02
 Quartic linear search produced a step of -0.01837.
 Iteration  1 RMS(Cart)=  0.01859356 RMS(Int)=  0.00078917
 Iteration  2 RMS(Cart)=  0.00078015 RMS(Int)=  0.00000322
 Iteration  3 RMS(Cart)=  0.00000047 RMS(Int)=  0.00000321
 Variable       Old X    -DE/DX   Delta X   Delta X   Delta X     New X
                                 (Linear)    (Quad)   (Total)
    R1        2.26865  -0.00101  -0.00024   0.00062   0.00038   2.26904
    R2        2.75937  -0.00093  -0.00019  -0.00126  -0.00145   2.75792
    R3        2.65722  -0.00006   0.00011  -0.00020  -0.00009   2.65713
    R4        2.69703  -0.00008  -0.00002  -0.00003  -0.00005   2.69698
    R5        2.07833  -0.00029  -0.00006  -0.00046  -0.00053   2.07780
    R6        2.72870   0.00071  -0.00045   0.00364   0.00319   2.73189
    R7        2.61280   0.00002   0.00029  -0.00068  -0.00039   2.61241
    R8        2.07519  -0.00033  -0.00006  -0.00057  -0.00063   2.07456
    R9        2.73312   0.00022  -0.00030   0.00208   0.00178   2.73490
   R10        2.07810  -0.00028  -0.00011  -0.00033  -0.00045   2.07766
   R11        2.74883   0.00013  -0.00015   0.00098   0.00084   2.74968
   R12        2.72143  -0.00095  -0.00012  -0.00101  -0.00113   2.72030
   R13        2.74373   0.00154  -0.00035   0.00469   0.00435   2.74808
   R14        2.67691  -0.00236   0.00017  -0.00486  -0.00469   2.67222
   R15        2.76102  -0.00071  -0.00015  -0.00085  -0.00100   2.76002
   R16        2.75801   0.00638  -0.00097   0.01690   0.01593   2.77393
   R17        2.09396   0.00011  -0.00016   0.00111   0.00095   2.09491
   R18        2.69253   0.00203  -0.00049   0.00612   0.00562   2.69816
   R19        2.09154   0.00025  -0.00018   0.00149   0.00131   2.09285
   R20        2.27174  -0.00193  -0.00024  -0.00003  -0.00027   2.27147
    A1        2.11403  -0.00015   0.00006  -0.00115  -0.00109   2.11294
    A2        2.08972   0.00020  -0.00025   0.00200   0.00175   2.09147
    A3        2.07943  -0.00004   0.00018  -0.00084  -0.00066   2.07877
    A4        2.10242   0.00043  -0.00007   0.00175   0.00168   2.10410
    A5        2.09461  -0.00039  -0.00001  -0.00148  -0.00148   2.09313
    A6        2.08616  -0.00004   0.00007  -0.00027  -0.00020   2.08596
    A7        2.09324   0.00024  -0.00002   0.00129   0.00127   2.09451
    A8        2.07745  -0.00030   0.00033  -0.00266  -0.00233   2.07512
    A9        2.11249   0.00005  -0.00031   0.00137   0.00105   2.11355
   A10        2.13526  -0.00045  -0.00018  -0.00139  -0.00157   2.13369
   A11        2.08874   0.00025  -0.00023   0.00187   0.00164   2.09038
   A12        2.05919   0.00019   0.00041  -0.00049  -0.00008   2.05911
   A13        2.04720   0.00022   0.00034  -0.00033   0.00001   2.04721
   A14        2.16043  -0.00177  -0.00044  -0.00452  -0.00497   2.15546
   A15        2.07556   0.00156   0.00010   0.00485   0.00496   2.08052
   A16        2.09049   0.00018  -0.00028   0.00185   0.00157   2.09205
   A17        2.15685   0.00006   0.00002   0.00081   0.00082   2.15768
   A18        2.03584  -0.00024   0.00026  -0.00266  -0.00239   2.03345
   A19        2.08106   0.00102   0.00013   0.00321   0.00335   2.08441
   A20        2.09256  -0.00070   0.00023  -0.00351  -0.00329   2.08927
   A21        2.10956  -0.00032  -0.00036   0.00030  -0.00006   2.10950
   A22        2.23738  -0.00153  -0.00104  -0.00192  -0.00297   2.23441
   A23        1.97366   0.00240   0.00100   0.00912   0.01012   1.98378
   A24        2.07215  -0.00087   0.00004  -0.00720  -0.00716   2.06499
   A25        1.89741   0.00044   0.00162  -0.00182  -0.00022   1.89719
   A26        2.23912  -0.00126  -0.00107  -0.00167  -0.00274   2.23639
   A27        1.96172   0.00200   0.00126   0.00674   0.00800   1.96972
   A28        2.08234  -0.00074  -0.00019  -0.00507  -0.00526   2.07708
   A29        3.13466   0.00143   0.00036   0.08285   0.08320   3.21787
   A30        3.20499  -0.00067   0.00025  -0.01255  -0.01230   3.19269
   A31        3.14141   0.00001   0.00000   0.00065   0.00066   3.14206
   A32        3.14191  -0.00001  -0.00001  -0.00018  -0.00018   3.14173
    D1       -3.14158   0.00000   0.00000   0.00001   0.00000  -3.14158
    D2        0.00006   0.00000   0.00000   0.00001   0.00001   0.00007
    D3       -0.00006   0.00000   0.00000   0.00001   0.00001  -0.00005
    D4        3.14158   0.00000   0.00000   0.00001   0.00001  -3.14159
    D5       -0.00003   0.00000   0.00000   0.00003   0.00003   0.00000
    D6        3.14154   0.00000   0.00001  -0.00010  -0.00009   3.14144
    D7       -3.14155   0.00000   0.00000   0.00003   0.00002  -3.14153
    D8        0.00001   0.00000   0.00000  -0.00010  -0.00010  -0.00009
    D9        3.14157   0.00000   0.00000  -0.00004  -0.00004   3.14153
   D10        0.00003   0.00000   0.00000  -0.00010  -0.00010  -0.00007
   D11       -0.00007   0.00000   0.00000  -0.00004  -0.00004  -0.00011
   D12        3.14157   0.00000   0.00000  -0.00010  -0.00010   3.14147
   D13        0.00005   0.00000   0.00000   0.00003   0.00004   0.00009
   D14       -3.14149   0.00000  -0.00001  -0.00013  -0.00013   3.14156
   D15        3.14159   0.00000   0.00000   0.00010   0.00010  -3.14149
   D16        0.00005   0.00000  -0.00001  -0.00006  -0.00007  -0.00002
   D17       -0.00002   0.00000  -0.00001   0.00000   0.00000  -0.00002
   D18        3.14127  -0.00001   0.00000  -0.00053  -0.00053   3.14074
   D19        3.14153   0.00000   0.00000   0.00016   0.00017  -3.14149
   D20       -0.00037  -0.00001   0.00000  -0.00037  -0.00036  -0.00074
[...]
 ! D14   D(4,5,6,17)           179.7235         -DE/DX =    0.0                 !
 ! D15   D(16,5,6,7)          -178.7072         -DE/DX =    0.0                 !
 ! D16   D(16,5,6,17)            0.0597         -DE/DX =    0.0                 !
 ! D17   D(5,6,7,8)             -1.4504         -DE/DX =    0.0                 !
 ! D18   D(5,6,7,12)           171.3583         -DE/DX =    0.0                 !
 ! D19   D(17,6,7,8)           179.7656         -DE/DX =    0.0                 !
 ! D20   D(17,6,7,12)           -7.4257         -DE/DX =    0.0                 !
 ! D21   D(6,7,8,3)              1.4203         -DE/DX =    0.0                 !
 ! D22   D(6,7,8,9)           -177.397          -DE/DX =    0.0                 !
 ! D23   D(12,7,8,3)          -171.8            -DE/DX =    0.0                 !
 ! D24   D(12,7,8,9)             9.3826         -DE/DX =    0.0                 !
 ! D25   D(6,7,12,11)          173.9643         -DE/DX =    0.0                 !
 ! D26   D(6,7,12,19)           -9.9643         -DE/DX =    0.0                 !
 ! D27   D(8,7,12,11)          -13.2376         -DE/DX =    0.0                 !
 ! D28   D(8,7,12,19)          162.8338         -DE/DX =    0.0                 !
 ! D29   D(3,8,9,10)          -172.8306         -DE/DX =    0.0                 !
 ! D30   D(3,8,9,14)             2.844          -DE/DX =    0.0                 !
 ! D31   D(7,8,9,10)             5.9352         -DE/DX =    0.0                 !
 ! D32   D(7,8,9,14)          -178.3901         -DE/DX =    0.0                 !
 ! D33   D(8,9,10,11)          -20.1082         -DE/DX =    0.0                 !
 ! D34   D(8,9,10,18)          162.8261         -DE/DX =    0.0                 !
 ! D35   D(14,9,10,11)         164.2844         -DE/DX =    0.0                 !
 ! D36   D(14,9,10,18)         -12.7813         -DE/DX =    0.0                 !
 ! D37   D(9,10,11,12)          16.5104         -DE/DX =    0.0                 !
 ! D38   D(18,10,11,12)       -166.5248         -DE/DX =    0.0                 !
 ! D39   D(10,11,12,7)           0.6474         -DE/DX =    0.0                 !
 ! D40   D(10,11,12,19)       -175.2047         -DE/DX =    0.0                 !
 --------------------------------------------------------------------------------
 GradGradGradGradGradGradGradGradGradGradGradGradGradGradGradGradGradGrad

                          Input orientation:                          
 ---------------------------------------------------------------------
 Center     Atomic      Atomic             Coordinates (Angstroms)
 Number     Number       Type             X           Y           Z
 ---------------------------------------------------------------------
      1          7           0        1.086681   -0.097309    0.082868
      2          6           0        2.286727   -0.090326    0.090742
      3          6           0        4.484318   -1.264969    0.050305
      4          6           0        3.745919   -0.065541    0.101530
      5          6           0        4.436958    1.195424    0.162517
      6          6           0        5.824565    1.221860    0.179400
      7          6           0        6.614330    0.019552    0.117338
      8          6           0        5.911445   -1.256180    0.067125
      9          6           0        6.717897   -2.470187    0.063120
     10          6           0        8.123818   -2.347495    0.237151
     11          6           0        8.860250   -1.136062    0.007986
     12          6           0        8.052260    0.011550   -0.048578
     13          7           0        5.587424   -4.868944   -0.061837
     14          6           0        6.073943   -3.770301   -0.021285
     15          1           0        3.956696   -2.227850    0.005645
     16          1           0        3.852763    2.124167    0.189491
     17          1           0        6.349429    2.186339    0.221394
     18          1           0        8.661262   -3.270876    0.521311
     19          1           0        8.490745    0.994057   -0.298123
 ---------------------------------------------------------------------
                    Distance matrix (angstroms):
                    1          2          3          4          5
     1  N    0.000000
     2  C    1.200092   0.000000
     3  C    3.592830   2.492153   0.000000
     4  C    2.659494   1.459443   1.409426   0.000000
     5  C    3.591916   2.506352   2.463405   1.439197   0.000000
     6  C    4.919052   3.774387   2.827940   2.446270   1.387962
     7  C    5.528992   4.329080   2.488260   2.869716   2.475008
     8  C    4.962013   3.807671   1.427253   2.471499   2.862442
     9  C    6.110772   5.029888   2.538029   3.823146   4.318479
    10  C    7.389752   6.260023   3.801676   4.938796   5.113784
    11  C    7.843022   6.656697   4.378035   5.226006   5.002521
    12  C    6.967670   5.768116   3.790711   4.309646   3.810056
    13  N    6.560954   5.809739   3.770684   5.146893   6.176606
    14  C    6.194716   5.281835   2.967950   4.377217   5.231819
    15  H    3.575214   2.713862   1.098872   2.174672   3.460356
    16  H    3.549301   2.714075   3.450286   2.194078   1.097531
    17  H    5.738533   4.658951   3.926759   3.444357   2.154745
    18  H    8.224235   7.136946   4.657508   5.883110   6.158029
    19  H    7.493757   6.310067   4.612598   4.878098   4.084841
                    6          7          8          9         10
     6  C    0.000000
     7  C    1.439835   0.000000
     8  C    2.482103   1.457416   0.000000
     9  C    3.800365   2.492481   1.457461   0.000000
    10  C    4.246198   2.809950   2.472746   1.421955   0.000000
    11  C    3.847669   2.528153   2.951843   2.524402   1.436112
    12  C    2.545476   1.447493   2.490707   2.819933   2.377364
    13  N    6.100190   4.998402   3.629557   2.654735   3.588926
    14  C    5.002413   3.830694   2.520918   1.453306   2.508616
    15  H    3.926783   3.482285   2.183796   2.772411   4.175262
    16  H    2.168470   3.472876   3.959784   5.415999   6.183845
    17  H    1.098847   2.185399   3.473697   4.673762   4.868712
    18  H    5.324325   3.896157   3.439009   2.151212   1.105543
    19  H    2.718168   2.154809   3.442348   3.908257   3.403986
                   11         12         13         14         15
    11  C    0.000000
    12  C    1.404657   0.000000
    13  N    4.964944   5.467615   0.000000
    14  C    3.834524   4.268124   1.202231   0.000000
    15  H    5.023629   4.668137   3.104707   2.619660   0.000000
    16  H    5.978040   4.706974   7.209425   6.302605   4.357138
    17  H    4.169906   2.775289   7.101964   5.967944   5.025613
    18  H    2.204661   3.386736   3.513170   2.690364   4.846314
    19  H    2.183494   1.104473   6.546746   5.349456   5.570508
                   16         17         18         19
    16  H    0.000000
    17  H    2.497643   0.000000
    18  H    7.234519   5.934284   0.000000
    19  H    4.798519   2.505328   4.346286   0.000000
 Stoichiometry    C12H5N2(1-)
 Framework group  C1[X(C12H5N2)]
 Deg. of freedom    51
 Full point group                 C1      NOp   1
 Largest Abelian subgroup         C1      NOp   1
 Largest concise Abelian subgroup C1      NOp   1
                         Standard orientation:                         
 ---------------------------------------------------------------------
 Center     Atomic      Atomic             Coordinates (Angstroms)
 Number     Number       Type             X           Y           Z
 ---------------------------------------------------------------------
      1          7           0       -4.400411    1.193650    0.009211
      2          6           0       -3.335495    0.640370    0.001873
      3          6           0       -0.843805    0.684869    0.020000
      4          6           0       -2.048047   -0.046911   -0.007943
      5          6           0       -2.008065   -1.485101   -0.043965
      6          6           0       -0.785140   -2.141334   -0.059867
      7          6           0        0.466230   -1.430209   -0.021128
      8          6           0        0.422338    0.026332    0.003829
      9          6           0        1.693390    0.739240   -0.015702
     10          6           0        2.887397   -0.013766   -0.186827
     11          6           0        2.992861   -1.423457    0.066289
     12          6           0        1.751218   -2.075512    0.145076
     13          7           0        1.781280    3.391387    0.061825
     14          6           0        1.713361    2.191223    0.042983
     15          1           0       -0.874298    1.783020    0.045598
     16          1           0       -2.951496   -2.045844   -0.052919
     17          1           0       -0.757807   -3.239603   -0.082768
     18          1           0        3.784084    0.558034   -0.488860
     19          1           0        1.695970   -3.145324    0.413982
 ---------------------------------------------------------------------
 Rotational constants (GHZ):      1.0817985      0.5545945      0.3673297

 **********************************************************************

            Population analysis using the SCF density.

 **********************************************************************

 Orbital symmetries:
       Occupied  (A) (A) (A) (A) (A) (A) (A) (A) (A) (A) (A) (A)
                 (A) (A) (A) (A) (A) (A) (A) (A) (A) (A) (A) (A)
                 (A) (A) (A) (A) (A) (A) (A) (A) (A) (A) (A) (A)
                 (A) (A) (A) (A) (A) (A) (A) (A) (A) (A)
       Virtual   (A) (A) (A) (A) (A) (A) (A) (A) (A) (A) (A) (A)
                 (A) (A) (A) (A) (A) (A) (A) (A) (A) (A) (A) (A)
                 (A) (A) (A) (A) (A)
 The electronic state is 1-A.
 Alpha  occ. eigenvalues --  -13.99459 -13.95557  -9.90716  -9.89977  -9.88057
 Alpha  occ. eigenvalues --   -9.87969  -9.87391  -9.86968  -9.86466  -9.86456
 Alpha  occ. eigenvalues --   -9.86280  -9.82436  -9.80359  -9.69582  -0.72996
 Alpha  occ. eigenvalues --   -0.69845  -0.67585  -0.61809  -0.58468  -0.54123
 Alpha  occ. eigenvalues --   -0.52122  -0.44111  -0.42779  -0.41047  -0.35934
 Alpha  occ. eigenvalues --   -0.31569  -0.29634  -0.27601  -0.25471  -0.24707
 Alpha  occ. eigenvalues --   -0.21182  -0.20970  -0.18991  -0.17475  -0.17026
 Alpha  occ. eigenvalues --   -0.15265  -0.14129  -0.14052  -0.13552  -0.11560
 Alpha  occ. eigenvalues --   -0.11059  -0.08971  -0.07614  -0.02183   0.00822
 Alpha  occ. eigenvalues --    0.09492
 Alpha virt. eigenvalues --    0.16960   0.20462   0.23936   0.25392   0.28250
 Alpha virt. eigenvalues --    0.29621   0.35013   0.37230   0.42660   0.44639
 Alpha virt. eigenvalues --    0.47570   0.50927   0.53578   0.56501   0.56951
 Alpha virt. eigenvalues --    0.58135   0.60246   0.64327   0.67140   0.69489
 Alpha virt. eigenvalues --    0.70813   0.75772   0.77522   0.82252   0.84695
 Alpha virt. eigenvalues --    0.92003   0.93300   1.06355   1.09678
          Condensed to atoms (all electrons):
               1          2          3          4          5          6
     1  N    6.591207   0.660147  -0.000087  -0.011023  -0.000097  -0.000001
     2  C    0.660147   4.933774  -0.028742   0.421914  -0.028606   0.000851
     3  C   -0.000087  -0.028742   4.833111   0.501201  -0.029488  -0.009477
     4  C   -0.011023   0.421914   0.501201   4.773781   0.465650  -0.029383
     5  C   -0.000097  -0.028606  -0.029488   0.465650   4.833395   0.525378
     6  C   -0.000001   0.000851  -0.009477  -0.029383   0.525378   4.835960
     7  C    0.000000   0.000014  -0.025302  -0.009040  -0.026435   0.465633
     8  C   -0.000001   0.000834   0.481811  -0.027101  -0.008696  -0.027538
     9  C    0.000000  -0.000005  -0.026974   0.000723   0.000029   0.000779
    10  C    0.000000   0.000000   0.000644  -0.000006   0.000000   0.000053
    11  C    0.000000   0.000000   0.000021   0.000000  -0.000007   0.000675
    12  C    0.000000   0.000000   0.000753   0.000035   0.000682  -0.025900
    13  N    0.000000   0.000000  -0.000101   0.000000   0.000000   0.000000
    14  C    0.000000   0.000000  -0.004275   0.000015   0.000000  -0.000005
    15  H    0.000058  -0.003394   0.385709  -0.025100   0.001251   0.000027
    16  H    0.000057  -0.003056   0.001221  -0.025082   0.387386  -0.024629
    17  H    0.000000  -0.000017   0.000025   0.001399  -0.026590   0.385890
    18  H    0.000000   0.000000  -0.000016   0.000000   0.000000   0.000001
    19  H    0.000000   0.000000  -0.000021  -0.000001   0.000006  -0.003613
               7          8          9         10         11         12
     1  N    0.000000  -0.000001   0.000000   0.000000   0.000000   0.000000
     2  C    0.000014   0.000834  -0.000005   0.000000   0.000000   0.000000
     3  C   -0.025302   0.481811  -0.026974   0.000644   0.000021   0.000753
     4  C   -0.009040  -0.027101   0.000723  -0.000006   0.000000   0.000035
     5  C   -0.026435  -0.008696   0.000029   0.000000  -0.000007   0.000682
     6  C    0.465633  -0.027538   0.000779   0.000053   0.000675  -0.025900
     7  C    4.822323   0.454869  -0.028380  -0.012630  -0.020874   0.451878
     8  C    0.454869   4.802752   0.453934  -0.029935  -0.007686  -0.029920
     9  C   -0.028380   0.453934   4.833177   0.477443  -0.019926  -0.011081
    10  C   -0.012630  -0.029935   0.477443   4.900714   0.443786  -0.031427
    11  C   -0.020874  -0.007686  -0.019926   0.443786   5.370920   0.484946
    12  C    0.451878  -0.029920  -0.011081  -0.031427   0.484946   4.917901
    13  N   -0.000001   0.000028  -0.011303  -0.000161  -0.000001   0.000000
    14  C    0.000722  -0.029141   0.424058  -0.026787   0.000715   0.000040
    15  H    0.001231  -0.024389  -0.003492   0.000022  -0.000001  -0.000017
    16  H    0.001307   0.000028   0.000001   0.000000   0.000000  -0.000014
    17  H   -0.025480   0.001269  -0.000016   0.000001   0.000015  -0.003103
    18  H    0.000009   0.001236  -0.033667   0.380796  -0.031202   0.001994
    19  H   -0.034213   0.001236   0.000027   0.002134  -0.031814   0.380422
              13         14         15         16         17         18
     1  N    0.000000   0.000000   0.000058   0.000057   0.000000   0.000000
     2  C    0.000000   0.000000  -0.003394  -0.003056  -0.000017   0.000000
     3  C   -0.000101  -0.004275   0.385709   0.001221   0.000025  -0.000016
     4  C    0.000000   0.000015  -0.025100  -0.025082   0.001399   0.000000
     5  C    0.000000   0.000000   0.001251   0.387386  -0.026590   0.000000
     6  C    0.000000  -0.000005   0.000027  -0.024629   0.385890   0.000001
     7  C   -0.000001   0.000722   0.001231   0.001307  -0.025480   0.000009
     8  C    0.000028  -0.029141  -0.024389   0.000028   0.001269   0.001236
     9  C   -0.011303   0.424058  -0.003492   0.000001  -0.000016  -0.033667
    10  C   -0.000161  -0.026787   0.000022   0.000000   0.000001   0.380796
    11  C   -0.000001   0.000715  -0.000001   0.000000   0.000015  -0.031202
    12  C    0.000000   0.000040  -0.000017  -0.000014  -0.003103   0.001994
    13  N    6.621736   0.653593  -0.000073   0.000000   0.000000   0.000103
    14  C    0.653593   4.951779   0.001632   0.000000   0.000000  -0.003410
    15  H   -0.000073   0.001632   0.590352  -0.000033   0.000002  -0.000001
    16  H    0.000000   0.000000  -0.000033   0.606912  -0.003808   0.000000
    17  H    0.000000   0.000000   0.000002  -0.003808   0.611818   0.000000
    18  H    0.000103  -0.003410  -0.000001   0.000000   0.000000   0.649637
    19  H    0.000000   0.000001   0.000000   0.000000   0.001219  -0.000023
              19
     1  N    0.000000
     2  C    0.000000
     3  C   -0.000021
     4  C   -0.000001
     5  C    0.000006
     6  C   -0.003613
     7  C   -0.034213
     8  C    0.001236
     9  C    0.000027
    10  C    0.002134
    11  C   -0.031814
    12  C    0.380422
    13  N    0.000000
    14  C    0.000001
    15  H    0.000000
    16  H    0.000000
    17  H    0.001219
    18  H   -0.000023
    19  H    0.663259
 Mulliken charges:
               1
     1  N   -0.240261
     2  C    0.046288
     3  C   -0.080012
     4  C   -0.037980
     5  C   -0.093856
     6  C   -0.094702
     7  C   -0.015630
     8  C   -0.013590
     9  C   -0.055326
    10  C   -0.104647
    11  C   -0.189567
    12  C   -0.137189
    13  N   -0.263820
    14  C    0.031063
    15  H    0.076216
    16  H    0.059712
    17  H    0.057376
    18  H    0.034543
    19  H    0.021381
 Sum of Mulliken charges =  -1.00000
 Mulliken charges with hydrogens summed into heavy atoms:
               1
     1  N   -0.240261
     2  C    0.046288
     3  C   -0.003796
     4  C   -0.037980
     5  C   -0.034144
     6  C   -0.037326
     7  C   -0.015630
     8  C   -0.013590
     9  C   -0.055326
    10  C   -0.070104
    11  C   -0.189567
    12  C   -0.115809
    13  N   -0.263820
    14  C    0.031063
 Electronic spatial extent (au):  <R**2>=           2776.8987
 Charge=             -1.0000 electrons
 Dipole moment (field-independent basis, Debye):
    X=             -3.0873    Y=             -2.2555    Z=             -0.2823  Tot=              3.8338
 Quadrupole moment (field-independent basis, Debye-Ang):
   XX=           -122.2186   YY=            -98.0592   ZZ=            -74.4031
   XY=              9.1841   XZ=             -0.9072   YZ=              0.1128
 Traceless Quadrupole moment (field-independent basis, Debye-Ang):
   XX=            -23.9917   YY=              0.1678   ZZ=             23.8239
   XY=              9.1841   XZ=             -0.9072   YZ=              0.1128
 Octapole moment (field-independent basis, Debye-Ang**2):
  XXX=             38.4480  YYY=            -54.9869  ZZZ=              0.1417  XYY=            -44.8021
  XXY=            -15.4201  XXZ=             -3.8216  XZZ=             -2.7504  YZZ=              5.0071
  YYZ=             -2.0185  XYZ=              0.9533
 Hexadecapole moment (field-independent basis, Debye-Ang**3):
 XXXX=          -3098.0676 YYYY=          -1475.5953 ZZZZ=            -62.9588 XXXY=            292.8554
 XXXZ=            -11.7551 YYYX=            -73.0010 YYYZ=             -4.1451 ZZZX=             -0.1821
 ZZZY=              0.8259 XXYY=           -741.4458 XXZZ=           -390.3120 YYZZ=           -215.2618
 XXYZ=              3.5898 YYXZ=             -4.8903 ZZXY=              1.1170
 N-N= 6.961969426336D+02 E-N=-2.714238310362D+03  KE= 5.546473177148D+02
 1\1\GINC-N050\FOpt\RB3LYP\STO-3G\C12H5N2(1-)\R2532\15-Jun-2021\0\\#N B
 3LYP/STO-3G OPT\\2Naph\\-1,1\N,1.0866809091,-0.0973093288,0.0828677403
 \C,2.2867265691,-0.0903260417,0.0907424003\C,4.4843177562,-1.264968708
 9,0.0503054658\C,3.7459191892,-0.0655412724,0.1015300905\C,4.436957906
 7,1.1954238283,0.1625171672\C,5.824565272,1.221860152,0.1794003655\C,6
 .6143300802,0.0195516072,0.1173376514\C,5.9114446825,-1.2561800343,0.0
 671250614\C,6.7178968859,-2.4701865667,0.0631199932\C,8.1238182041,-2.
 3474950122,0.2371507899\C,8.860249739,-1.1360619892,0.007986328\C,8.05
 22602357,0.0115504932,-0.0485784184\N,5.5874241596,-4.8689435566,-0.06
 18374448\C,6.073943249,-3.7703012662,-0.0212853401\H,3.9566960721,-2.2
 278499157,0.005644769\H,3.8527633394,2.1241673063,0.1894914529\H,6.349
 4288158,2.1863393575,0.2213936739\H,8.661262354,-3.2708761537,0.521311
 4336\H,8.4907445804,0.9940571018,-0.2981231796\\Version=ES64L-G09RevD.
 01\State=1-A\HF=-562.5161221\RMSD=8.658e-09\RMSF=4.666e-05\Dipole=-0.6
 76751,1.3409928,0.1371432\Quadrupole=-19.6466323,1.9488884,17.6977438,
 3.282245,0.6906814,-0.5407828\PG=C01 [X(C12H5N2)]\\@


 Change starts when someone sees the next step.
                            -- William Drayton
 Job cpu time:       0 days  0 hours 13 minutes 31.5 seconds.
 File lengths (MBytes):  RWF=      6 Int=      0 D2E=      0 Chk=      2 Scr=      1
 Normal termination of Gaussian 09 at Tue Jun 15 11:22:29 2021.
