 Entering Gaussian System, Link 0=/usr/local/apps//g09/g09
 Input=29.com
 Output=29.out
 Initial command:
 /usr/local/apps//g09/l1.exe "/tmp/bnp.472682.sequoia/Gau-2365.inp" -scrdir="/tmp/bnp.472682.sequoia/"
 Entering Link 1 = /usr/local/apps//g09/l1.exe PID=      2389.
  
 Copyright (c) 1988,1990,1992,1993,1995,1998,2003,2009,2013,
            Gaussian, Inc.  All Rights Reserved.
  
 This is part of the Gaussian(R) 09 program.  It is based on
 the Gaussian(R) 03 system (copyright 2003, Gaussian, Inc.),
 the Gaussian(R) 98 system (copyright 1998, Gaussian, Inc.),
 the Gaussian(R) 94 system (copyright 1995, Gaussian, Inc.),
 the Gaussian 92(TM) system (copyright 1992, Gaussian, Inc.),
 the Gaussian 90(TM) system (copyright 1990, Gaussian, Inc.),
 the Gaussian 88(TM) system (copyright 1988, Gaussian, Inc.),
 the Gaussian 86(TM) system (copyright 1986, Carnegie Mellon
 University), and the Gaussian 82(TM) system (copyright 1983,
 Carnegie Mellon University). Gaussian is a federally registered
 trademark of Gaussian, Inc.
  
 This software contains proprietary and confidential information,
 including trade secrets, belonging to Gaussian, Inc.
  
 This software is provided under written license and may be
 used, copied, transmitted, or stored only in accord with that
 written license.
  
 The following legend is applicable only to US Government
 contracts under FAR:
  
                    RESTRICTED RIGHTS LEGEND
  
 Use, reproduction and disclosure by the US Government is
 subject to restrictions as set forth in subparagraphs (a)
 and (c) of the Commercial Computer Software - Restricted
 Rights clause in FAR 52.227-19.
  
 Gaussian, Inc.
 340 Quinnipiac St., Bldg. 40, Wallingford CT 06492
  
  
 ---------------------------------------------------------------
 Warning -- This program may not be used in any manner that
 competes with the business of Gaussian, Inc. or will provide
 assistance to any competitor of Gaussian, Inc.  The licensee
 of this program is prohibited from giving any competitor of
 Gaussian, Inc. access to this program.  By using this program,
 the user acknowledges that Gaussian, Inc. is engaged in the
 business of creating and licensing software in the field of
 computational chemistry and represents and warrants to the
 licensee that it is not a competitor of Gaussian, Inc. and that
 it will not use this program in any manner prohibited above.
 ---------------------------------------------------------------
  

 Cite this work as:
 Gaussian 09, Revision D.01,
 M. J. Frisch, G. W. Trucks, H. B. Schlegel, G. E. Scuseria, 
 M. A. Robb, J. R. Cheeseman, G. Scalmani, V. Barone, B. Mennucci, 
 G. A. Petersson, H. Nakatsuji, M. Caricato, X. Li, H. P. Hratchian, 
 A. F. Izmaylov, J. Bloino, G. Zheng, J. L. Sonnenberg, M. Hada, 
 M. Ehara, K. Toyota, R. Fukuda, J. Hasegawa, M. Ishida, T. Nakajima, 
 Y. Honda, O. Kitao, H. Nakai, T. Vreven, J. A. Montgomery, Jr., 
 J. E. Peralta, F. Ogliaro, M. Bearpark, J. J. Heyd, E. Brothers, 
 K. N. Kudin, V. N. Staroverov, T. Keith, R. Kobayashi, J. Normand, 
 K. Raghavachari, A. Rendell, J. C. Burant, S. S. Iyengar, J. Tomasi, 
 M. Cossi, N. Rega, J. M. Millam, M. Klene, J. E. Knox, J. B. Cross, 
 V. Bakken, C. Adamo, J. Jaramillo, R. Gomperts, R. E. Stratmann, 
 O. Yazyev, A. J. Austin, R. Cammi, C. Pomelli, J. W. Ochterski, 
 R. L. Martin, K. Morokuma, V. G. Zakrzewski, G. A. Voth, 
 P. Salvador, J. J. Dannenberg, S. Dapprich, A. D. Daniels, 
 O. Farkas, J. B. Foresman, J. V. Ortiz, J. Cioslowski, 
 and D. J. Fox, Gaussian, Inc., Wallingford CT, 2013.
 
 ******************************************
 Gaussian 09:  ES64L-G09RevD.01 24-Apr-2013
                15-Jun-2021 
 ******************************************
 -------------------
 #N B3LYP/STO-3G OPT
 -------------------
 1/14=-1,18=20,19=15,26=3,38=1/1,3;
 2/9=110,12=2,17=6,18=5,40=1/2;
 3/6=3,11=2,16=1,25=1,30=1,71=1,74=-5/1,2,3;
 4//1;
 5/5=2,38=5/2;
 6/7=2,8=2,9=2,10=2,28=1/1;
 7//1,2,3,16;
 1/14=-1,18=20,19=15,26=3/3(2);
 2/9=110/2;
 99//99;
 2/9=110/2;
 3/6=3,11=2,16=1,25=1,30=1,71=1,74=-5/1,2,3;
 4/5=5,16=3,69=1/1;
 5/5=2,38=5/2;
 7//1,2,3,16;
 1/14=-1,18=20,19=15,26=3/3(-5);
 2/9=110/2;
 6/7=2,8=2,9=2,10=2,19=2,28=1/1;
 99/9=1/99;
 -----
 1Naph
 -----
 Symbolic Z-matrix:
 Charge = -1 Multiplicity = 1
 N                     1.09673  -0.13934  -0.01485 
 C                     2.25516  -0.18431  -0.01442 
 C                     3.69208  -0.22143  -0.0141 
 C                     4.37161   1.01391  -0.01407 
 C                     5.76203   1.05392  -0.01399 
 C                     6.48156  -0.13519  -0.01394 
 C                     5.82418  -1.3684   -0.01404 
 C                     4.40969  -1.45318  -0.0141 
 C                     3.83823  -2.76304  -0.01428 
 C                     4.6441   -3.91605  -0.01443 
 C                     6.03294  -3.78349  -0.01447 
 C                     6.60664  -2.52029  -0.01424 
 N                     3.71823  -6.34127  -0.0146 
 C                     4.09326  -5.24499  -0.01454 
 H                     3.8201    1.95297  -0.01419 
 H                     6.28817   2.00611  -0.01398 
 H                     7.57012  -0.09377  -0.01385 
 H                     2.75173  -2.88576  -0.01443 
 H                     6.67997  -4.65508  -0.01473 
 

 GradGradGradGradGradGradGradGradGradGradGradGradGradGradGradGradGradGrad
 Berny optimization.
 Initialization pass.
                           ----------------------------
                           !    Initial Parameters    !
                           ! (Angstroms and Degrees)  !
 --------------------------                            --------------------------
 ! Name  Definition              Value          Derivative Info.                !
 --------------------------------------------------------------------------------
 ! R1    R(1,2)                  1.1593         estimate D2E/DX2                !
 ! R2    R(2,3)                  1.4374         estimate D2E/DX2                !
 ! R3    R(3,4)                  1.4099         estimate D2E/DX2                !
 ! R4    R(3,8)                  1.4255         estimate D2E/DX2                !
 ! R5    R(4,5)                  1.391          estimate D2E/DX2                !
 ! R6    R(4,15)                 1.089          estimate D2E/DX2                !
 ! R7    R(5,6)                  1.3899         estimate D2E/DX2                !
 ! R8    R(5,16)                 1.0879         estimate D2E/DX2                !
 ! R9    R(6,7)                  1.3975         estimate D2E/DX2                !
 ! R10   R(6,17)                 1.0893         estimate D2E/DX2                !
 ! R11   R(7,8)                  1.417          estimate D2E/DX2                !
 ! R12   R(7,12)                 1.3925         estimate D2E/DX2                !
 ! R13   R(8,9)                  1.4291         estimate D2E/DX2                !
 ! R14   R(9,10)                 1.4067         estimate D2E/DX2                !
 ! R15   R(9,18)                 1.0934         estimate D2E/DX2                !
 ! R16   R(10,11)                1.3952         estimate D2E/DX2                !
 ! R17   R(10,14)                1.4386         estimate D2E/DX2                !
 ! R18   R(11,12)                1.3874         estimate D2E/DX2                !
 ! R19   R(11,19)                1.0855         estimate D2E/DX2                !
 ! R20   R(13,14)                1.1587         estimate D2E/DX2                !
 ! A1    A(2,3,4)              117.3343         estimate D2E/DX2                !
 ! A2    A(2,3,8)              121.7046         estimate D2E/DX2                !
 ! A3    A(4,3,8)              120.9611         estimate D2E/DX2                !
 ! A4    A(3,4,5)              120.4624         estimate D2E/DX2                !
 ! A5    A(3,4,15)             120.7602         estimate D2E/DX2                !
 ! A6    A(5,4,15)             118.7775         estimate D2E/DX2                !
 ! A7    A(4,5,6)              119.5299         estimate D2E/DX2                !
 ! A8    A(4,5,16)             120.5714         estimate D2E/DX2                !
 ! A9    A(6,5,16)             119.8987         estimate D2E/DX2                !
 ! A10   A(5,6,7)              120.7614         estimate D2E/DX2                !
 ! A11   A(5,6,17)             118.999          estimate D2E/DX2                !
 ! A12   A(7,6,17)             120.2395         estimate D2E/DX2                !
 ! A13   A(6,7,8)              121.4905         estimate D2E/DX2                !
 ! A14   A(6,7,12)             117.7519         estimate D2E/DX2                !
 ! A15   A(8,7,12)             120.7576         estimate D2E/DX2                !
 ! A16   A(3,8,7)              116.7948         estimate D2E/DX2                !
 ! A17   A(3,8,9)              126.2047         estimate D2E/DX2                !
 ! A18   A(7,8,9)              117.0005         estimate D2E/DX2                !
 ! A19   A(8,9,10)             121.4788         estimate D2E/DX2                !
 ! A20   A(8,9,18)             120.0147         estimate D2E/DX2                !
 ! A21   A(10,9,18)            118.5065         estimate D2E/DX2                !
 ! A22   A(9,10,11)            119.4986         estimate D2E/DX2                !
 ! A23   A(9,10,14)            122.5355         estimate D2E/DX2                !
 ! A24   A(11,10,14)           117.966          estimate D2E/DX2                !
 ! A25   A(10,11,12)           119.878          estimate D2E/DX2                !
 ! A26   A(10,11,19)           121.1364         estimate D2E/DX2                !
 ! A27   A(12,11,19)           118.9856         estimate D2E/DX2                !
 ! A28   A(7,12,11)            121.3865         estimate D2E/DX2                !
 ! A29   L(1,2,3,13,-1)        180.7433         estimate D2E/DX2                !
 ! A30   L(10,14,13,19,-1)     176.3717         estimate D2E/DX2                !
 ! A31   L(1,2,3,13,-2)        179.9911         estimate D2E/DX2                !
 ! A32   L(10,14,13,19,-2)     179.9977         estimate D2E/DX2                !
 ! D1    D(2,3,4,5)           -179.9894         estimate D2E/DX2                !
 ! D2    D(2,3,4,15)             0.0057         estimate D2E/DX2                !
 ! D3    D(8,3,4,5)             -0.0024         estimate D2E/DX2                !
 ! D4    D(8,3,4,15)           179.9927         estimate D2E/DX2                !
 ! D5    D(2,3,8,7)            179.9877         estimate D2E/DX2                !
 ! D6    D(2,3,8,9)             -0.006          estimate D2E/DX2                !
 ! D7    D(4,3,8,7)              0.0013         estimate D2E/DX2                !
 ! D8    D(4,3,8,9)           -179.9925         estimate D2E/DX2                !
 ! D9    D(3,4,5,6)              0.0            estimate D2E/DX2                !
 ! D10   D(3,4,5,16)           179.9992         estimate D2E/DX2                !
 ! D11   D(15,4,5,6)          -179.9951         estimate D2E/DX2                !
 ! D12   D(15,4,5,16)            0.0041         estimate D2E/DX2                !
 ! D13   D(4,5,6,7)              0.0034         estimate D2E/DX2                !
 ! D14   D(4,5,6,17)          -179.9983         estimate D2E/DX2                !
 ! D15   D(16,5,6,7)          -179.9958         estimate D2E/DX2                !
 ! D16   D(16,5,6,17)            0.0025         estimate D2E/DX2                !
 ! D17   D(5,6,7,8)             -0.0045         estimate D2E/DX2                !
 ! D18   D(5,6,7,12)           179.988          estimate D2E/DX2                !
 ! D19   D(17,6,7,8)           179.9972         estimate D2E/DX2                !
 ! D20   D(17,6,7,12)           -0.0102         estimate D2E/DX2                !
 ! D21   D(6,7,8,3)              0.0021         estimate D2E/DX2                !
 ! D22   D(6,7,8,9)            179.9965         estimate D2E/DX2                !
 ! D23   D(12,7,8,3)          -179.9902         estimate D2E/DX2                !
 ! D24   D(12,7,8,9)             0.0042         estimate D2E/DX2                !
 ! D25   D(6,7,12,11)         -179.9942         estimate D2E/DX2                !
 ! D26   D(8,7,12,11)           -0.0016         estimate D2E/DX2                !
 ! D27   D(3,8,9,10)           179.992          estimate D2E/DX2                !
 ! D28   D(3,8,9,18)            -0.0004         estimate D2E/DX2                !
 ! D29   D(7,8,9,10)            -0.0018         estimate D2E/DX2                !
 ! D30   D(7,8,9,18)          -179.9941         estimate D2E/DX2                !
 ! D31   D(8,9,10,11)           -0.0032         estimate D2E/DX2                !
 ! D32   D(8,9,10,14)          179.9966         estimate D2E/DX2                !
 ! D33   D(18,9,10,11)         179.9893         estimate D2E/DX2                !
 ! D34   D(18,9,10,14)          -0.011          estimate D2E/DX2                !
 ! D35   D(9,10,11,12)           0.0058         estimate D2E/DX2                !
 ! D36   D(9,10,11,19)        -179.991          estimate D2E/DX2                !
 ! D37   D(14,10,11,12)       -179.9939         estimate D2E/DX2                !
 ! D38   D(14,10,11,19)          0.0092         estimate D2E/DX2                !
 ! D39   D(10,11,12,7)          -0.0035         estimate D2E/DX2                !
 ! D40   D(19,11,12,7)         179.9934         estimate D2E/DX2                !
 --------------------------------------------------------------------------------
 Trust Radius=3.00D-01 FncErr=1.00D-07 GrdErr=1.00D-06
 Number of steps in this run=    102 maximum allowed number of steps=    114.
 GradGradGradGradGradGradGradGradGradGradGradGradGradGradGradGradGradGrad

                          Input orientation:                          
 ---------------------------------------------------------------------
 Center     Atomic      Atomic             Coordinates (Angstroms)
 Number     Number       Type             X           Y           Z
 ---------------------------------------------------------------------
      1          7           0        1.096730   -0.139340   -0.014850
      2          6           0        2.255160   -0.184310   -0.014420
      3          6           0        3.692080   -0.221430   -0.014100
      4          6           0        4.371610    1.013910   -0.014070
      5          6           0        5.762030    1.053920   -0.013990
      6          6           0        6.481560   -0.135190   -0.013940
      7          6           0        5.824180   -1.368400   -0.014040
      8          6           0        4.409690   -1.453180   -0.014100
      9          6           0        3.838230   -2.763040   -0.014280
     10          6           0        4.644100   -3.916050   -0.014430
     11          6           0        6.032940   -3.783490   -0.014470
     12          6           0        6.606640   -2.520290   -0.014240
     13          7           0        3.718230   -6.341270   -0.014600
     14          6           0        4.093260   -5.244990   -0.014540
     15          1           0        3.820100    1.952970   -0.014190
     16          1           0        6.288170    2.006110   -0.013980
     17          1           0        7.570120   -0.093770   -0.013850
     18          1           0        2.751730   -2.885760   -0.014430
     19          1           0        6.679970   -4.655080   -0.014730
 ---------------------------------------------------------------------
                    Distance matrix (angstroms):
                    1          2          3          4          5
     1  N    0.000000
     2  C    1.159303   0.000000
     3  C    2.596648   1.437399   0.000000
     4  C    3.472006   2.432096   1.409903   0.000000
     5  C    4.815485   3.719052   2.431298   1.390996   0.000000
     6  C    5.384832   4.226685   2.790813   2.402565   1.389858
     7  C    4.884606   3.760316   2.421031   2.790226   2.423117
     8  C    3.563970   2.500406   1.425543   2.467384   2.848574
     9  C    3.794684   3.025882   2.545809   3.814426   4.274364
    10  C    5.181445   4.430905   3.815306   4.937485   5.094151
    11  C    6.135634   5.217827   4.262382   5.076915   4.844990
    12  C    6.002336   4.938844   3.712064   4.181618   3.672648
    13  N    6.733216   6.328407   6.119896   7.384144   7.672415
    14  C    5.920038   5.384152   5.039554   6.265086   6.516215
    15  H    3.434313   2.648963   2.178165   1.089035   2.139949
    16  H    5.617295   4.589456   3.420763   2.158162   1.087883
    17  H    6.473550   5.315731   3.880141   3.384881   2.141584
    18  H    3.206532   2.746710   2.825405   4.222729   4.958123
    19  H    7.180841   6.290209   5.346470   6.120946   5.782326
                    6          7          8          9         10
     6  C    0.000000
     7  C    1.397482   0.000000
     8  C    2.455553   1.417028   0.000000
     9  C    3.727303   2.426730   1.429091   0.000000
    10  C    4.203708   2.807688   2.474000   1.406719   0.000000
    11  C    3.675779   2.424096   2.839945   2.420345   1.395152
    12  C    2.388378   1.392514   2.442399   2.779032   2.408259
    13  N    6.793484   5.400413   4.936754   3.580242   2.595944
    14  C    5.640393   4.245472   3.804990   2.495018   1.438578
    15  H    3.382866   3.879154   3.456801   4.716045   5.926582
    16  H    2.150015   3.406260   3.936416   5.361623   6.146133
    17  H    1.089348   2.161710   3.440394   4.588246   4.813670
    18  H    4.634357   3.426708   2.191145   1.093409   2.154660
    19  H    4.524243   3.396269   3.925090   3.413986   2.165856
                   11         12         13         14         15
    11  C    0.000000
    12  C    1.387374   0.000000
    13  N    3.449655   4.789864   0.000000
    14  C    2.428650   3.706895   1.158653   0.000000
    15  H    6.148466   5.270186   8.294866   7.203141   0.000000
    16  H    5.795223   4.537590   8.734034   7.576020   2.468642
    17  H    3.997119   2.610803   7.339504   6.214791   4.272212
    18  H    3.401802   3.872196   3.588129   2.713977   4.955272
    19  H    1.085503   2.136049   3.408099   2.653123   7.200360
                   16         17         18         19
    16  H    0.000000
    17  H    2.460263   0.000000
    18  H    6.036290   5.568850   0.000000
    19  H    6.672703   4.647356   4.308313   0.000000
 Stoichiometry    C12H5N2(1-)
 Framework group  C1[X(C12H5N2)]
 Deg. of freedom    51
 Full point group                 C1      NOp   1
 Largest Abelian subgroup         C1      NOp   1
 Largest concise Abelian subgroup C1      NOp   1
                         Standard orientation:                         
 ---------------------------------------------------------------------
 Center     Atomic      Atomic             Coordinates (Angstroms)
 Number     Number       Type             X           Y           Z
 ---------------------------------------------------------------------
      1          7           0        1.865073    3.301947   -0.000553
      2          6           0        1.758535    2.147550   -0.000123
      3          6           0        1.645020    0.714640    0.000197
      4          6           0        2.842458   -0.029651    0.000227
      5          6           0        2.808437   -1.420231    0.000307
      6          6           0        1.582730   -2.075478    0.000357
      7          6           0        0.386241   -1.353419    0.000257
      8          6           0        0.376836    0.063579    0.000197
      9          6           0       -0.900766    0.703918    0.000017
     10          6           0       -2.095018   -0.039468   -0.000133
     11          6           0       -2.036535   -1.433393   -0.000173
     12          6           0       -0.805647   -2.073487    0.000057
     13          7           0       -4.467544    1.014119   -0.000303
     14          6           0       -3.392769    0.581295   -0.000243
     15          1           0        3.809529    0.471117    0.000107
     16          1           0        3.731286   -1.996285    0.000317
     17          1           0        1.566177   -3.164700    0.000447
     18          1           0       -0.965507    1.795408   -0.000133
     19          1           0       -2.941315   -2.033136   -0.000433
 ---------------------------------------------------------------------
 Rotational constants (GHZ):      1.1637252      0.5482798      0.3726899
 Standard basis: STO-3G (5D, 7F)
 There are    75 symmetry adapted cartesian basis functions of A   symmetry.
 There are    75 symmetry adapted basis functions of A   symmetry.
    75 basis functions,   225 primitive gaussians,    75 cartesian basis functions
    46 alpha electrons       46 beta electrons
       nuclear repulsion energy       706.4076043798 Hartrees.
 NAtoms=   19 NActive=   19 NUniq=   19 SFac= 1.00D+00 NAtFMM=   60 NAOKFM=F Big=F
 Integral buffers will be    131072 words long.
 Raffenetti 2 integral format.
 Two-electron integral symmetry is turned on.
 One-electron integrals computed using PRISM.
 NBasis=    75 RedAO= T EigKep=  1.54D-01  NBF=    75
 NBsUse=    75 1.00D-06 EigRej= -1.00D+00 NBFU=    75
 ExpMin= 1.69D-01 ExpMax= 9.91D+01 ExpMxC= 9.91D+01 IAcc=1 IRadAn=         1 AccDes= 0.00D+00
 Harris functional with IExCor=  402 and IRadAn=       1 diagonalized for initial guess.
 HarFok:  IExCor=  402 AccDes= 0.00D+00 IRadAn=         1 IDoV= 1 UseB2=F ITyADJ=14
 ICtDFT=  3500011 ScaDFX=  1.000000  1.000000  1.000000  1.000000
 FoFCou: FMM=F IPFlag=           0 FMFlag=      100000 FMFlg1=           0
         NFxFlg=           0 DoJE=T BraDBF=F KetDBF=T FulRan=T
         wScrn=  0.000000 ICntrl=     500 IOpCl=  0 I1Cent=   200000004 NGrid=           0
         NMat0=    1 NMatS0=      1 NMatT0=    0 NMatD0=    1 NMtDS0=    0 NMtDT0=    0
 Petite list used in FoFCou.
 Keep R1 ints in memory in canonical form, NReq=4993994.
 Requested convergence on RMS density matrix=1.00D-08 within 128 cycles.
 Requested convergence on MAX density matrix=1.00D-06.
 Requested convergence on             energy=1.00D-06.
 No special actions if energy rises.
 Integral accuracy reduced to 1.0D-05 until final iterations.
 EnCoef did     4 forward-backward iterations
 Initial convergence to 1.0D-05 achieved.  Increase integral accuracy.
 SCF Done:  E(RB3LYP) =  -562.477035615     A.U. after   26 cycles
            NFock= 26  Conv=0.39D-08     -V/T= 2.0128

 **********************************************************************

            Population analysis using the SCF density.

 **********************************************************************

 Orbital symmetries:
       Occupied  (A) (A) (A) (A) (A) (A) (A) (A) (A) (A) (A) (A)
                 (A) (A) (A) (A) (A) (A) (A) (A) (A) (A) (A) (A)
                 (A) (A) (A) (A) (A) (A) (A) (A) (A) (A) (A) (A)
                 (A) (A) (A) (A) (A) (A) (A) (A) (A) (A)
       Virtual   (A) (A) (A) (A) (A) (A) (A) (A) (A) (A) (A) (A)
                 (A) (A) (A) (A) (A) (A) (A) (A) (A) (A) (A) (A)
                 (A) (A) (A) (A) (A)
 The electronic state is 1-A.
 Alpha  occ. eigenvalues --  -13.98917 -13.96840  -9.90172  -9.89566  -9.88617
 Alpha  occ. eigenvalues --   -9.87568  -9.87489  -9.86711  -9.86689  -9.86644
 Alpha  occ. eigenvalues --   -9.83724  -9.83121  -9.79600  -9.64173  -0.74217
 Alpha  occ. eigenvalues --   -0.72447  -0.68193  -0.62717  -0.58707  -0.56099
 Alpha  occ. eigenvalues --   -0.50170  -0.46461  -0.42494  -0.41104  -0.34803
 Alpha  occ. eigenvalues --   -0.31652  -0.30927  -0.28237  -0.25446  -0.23881
 Alpha  occ. eigenvalues --   -0.21778  -0.21470  -0.19724  -0.17992  -0.16835
 Alpha  occ. eigenvalues --   -0.15699  -0.14980  -0.14349  -0.13646  -0.12770
 Alpha  occ. eigenvalues --   -0.10942  -0.10910  -0.06840  -0.03969   0.02339
 Alpha  occ. eigenvalues --    0.15090
 Alpha virt. eigenvalues --    0.16719   0.22046   0.26311   0.27692   0.29794
 Alpha virt. eigenvalues --    0.30247   0.36803   0.39385   0.45438   0.48377
 Alpha virt. eigenvalues --    0.49214   0.51417   0.54710   0.57623   0.60399
 Alpha virt. eigenvalues --    0.61637   0.64587   0.65047   0.71711   0.72422
 Alpha virt. eigenvalues --    0.74018   0.78012   0.82272   0.85959   0.88645
 Alpha virt. eigenvalues --    0.98077   1.00678   1.14607   1.16722
          Condensed to atoms (all electrons):
               1          2          3          4          5          6
     1  N    6.579079   0.686604  -0.011245  -0.000226  -0.000001   0.000000
     2  C    0.686604   4.898121   0.423080  -0.034590   0.001050   0.000005
     3  C   -0.011245   0.423080   4.775593   0.507161  -0.030145  -0.011330
     4  C   -0.000226  -0.034590   0.507161   4.819589   0.495580  -0.030439
     5  C   -0.000001   0.001050  -0.030145   0.495580   4.839425   0.508411
     6  C    0.000000   0.000005  -0.011330  -0.030439   0.508411   4.827214
     7  C   -0.000002   0.000973  -0.028754  -0.011491  -0.030528   0.484226
     8  C   -0.000039  -0.027860   0.458961  -0.028348  -0.008207  -0.035299
     9  C   -0.000054  -0.003339  -0.026723   0.000669   0.000035   0.000944
    10  C    0.000000   0.000009   0.000716  -0.000006   0.000001  -0.000018
    11  C    0.000000   0.000000   0.000049   0.000001  -0.000019   0.001546
    12  C    0.000000  -0.000009   0.001131   0.000039   0.001207  -0.045858
    13  N    0.000000   0.000000   0.000000   0.000000   0.000000   0.000000
    14  C    0.000000   0.000000  -0.000003   0.000000   0.000000   0.000000
    15  H    0.000045  -0.003882  -0.024576   0.389859  -0.026973   0.001569
    16  H    0.000000  -0.000021   0.001433  -0.026348   0.390458  -0.026234
    17  H    0.000000   0.000001   0.000027   0.001572  -0.027827   0.388931
    18  H   -0.000080   0.001098  -0.003050   0.000007  -0.000001  -0.000022
    19  H    0.000000   0.000000   0.000001   0.000000   0.000000  -0.000002
               7          8          9         10         11         12
     1  N   -0.000002  -0.000039  -0.000054   0.000000   0.000000   0.000000
     2  C    0.000973  -0.027860  -0.003339   0.000009   0.000000  -0.000009
     3  C   -0.028754   0.458961  -0.026723   0.000716   0.000049   0.001131
     4  C   -0.011491  -0.028348   0.000669  -0.000006   0.000001   0.000039
     5  C   -0.030528  -0.008207   0.000035   0.000001  -0.000019   0.001207
     6  C    0.484226  -0.035299   0.000944  -0.000018   0.001546  -0.045858
     7  C    4.832290   0.444705  -0.033524  -0.011867  -0.028927   0.450815
     8  C    0.444705   4.808991   0.489139  -0.024569  -0.011397  -0.029395
     9  C   -0.033524   0.489139   4.867415   0.505384  -0.034952  -0.014115
    10  C   -0.011867  -0.024569   0.505384   4.784909   0.462322  -0.028403
    11  C   -0.028927  -0.011397  -0.034952   0.462322   4.899123   0.489771
    12  C    0.450815  -0.029395  -0.014115  -0.028403   0.489771   5.441799
    13  N    0.000000  -0.000002  -0.000002  -0.011226  -0.000347  -0.000001
    14  C    0.000040   0.000850  -0.029831   0.416226  -0.031264   0.001204
    15  H    0.000044   0.001233  -0.000015   0.000000   0.000000   0.000001
    16  H    0.001500   0.000000   0.000001   0.000000   0.000000  -0.000030
    17  H   -0.024337   0.001501  -0.000018   0.000000   0.000049  -0.002440
    18  H    0.001325  -0.025038   0.387743  -0.026727   0.001364   0.000064
    19  H    0.002135  -0.000038   0.001256  -0.034035   0.389998  -0.036783
              13         14         15         16         17         18
     1  N    0.000000   0.000000   0.000045   0.000000   0.000000  -0.000080
     2  C    0.000000   0.000000  -0.003882  -0.000021   0.000001   0.001098
     3  C    0.000000  -0.000003  -0.024576   0.001433   0.000027  -0.003050
     4  C    0.000000   0.000000   0.389859  -0.026348   0.001572   0.000007
     5  C    0.000000   0.000000  -0.026973   0.390458  -0.027827  -0.000001
     6  C    0.000000   0.000000   0.001569  -0.026234   0.388931  -0.000022
     7  C    0.000000   0.000040   0.000044   0.001500  -0.024337   0.001325
     8  C   -0.000002   0.000850   0.001233   0.000000   0.001501  -0.025038
     9  C   -0.000002  -0.029831  -0.000015   0.000001  -0.000018   0.387743
    10  C   -0.011226   0.416226   0.000000   0.000000   0.000000  -0.026727
    11  C   -0.000347  -0.031264   0.000000   0.000000   0.000049   0.001364
    12  C   -0.000001   0.001204   0.000001  -0.000030  -0.002440   0.000064
    13  N    6.593465   0.685352   0.000000   0.000000   0.000000   0.000075
    14  C    0.685352   4.912645   0.000000   0.000000   0.000000  -0.003732
    15  H    0.000000   0.000000   0.603216  -0.004006  -0.000041  -0.000001
    16  H    0.000000   0.000000  -0.004006   0.615439  -0.004025   0.000000
    17  H    0.000000   0.000000  -0.000041  -0.004025   0.593505   0.000000
    18  H    0.000075  -0.003732  -0.000001   0.000000   0.000000   0.612709
    19  H    0.000125  -0.003901   0.000000   0.000000  -0.000006  -0.000041
              19
     1  N    0.000000
     2  C    0.000000
     3  C    0.000001
     4  C    0.000000
     5  C    0.000000
     6  C   -0.000002
     7  C    0.002135
     8  C   -0.000038
     9  C    0.001256
    10  C   -0.034035
    11  C    0.389998
    12  C   -0.036783
    13  N    0.000125
    14  C   -0.003901
    15  H    0.000000
    16  H    0.000000
    17  H   -0.000006
    18  H   -0.000041
    19  H    0.649397
 Mulliken charges:
               1
     1  N   -0.254083
     2  C    0.058761
     3  C   -0.032326
     4  C   -0.083030
     5  C   -0.112464
     6  C   -0.063644
     7  C   -0.048622
     8  C   -0.015189
     9  C   -0.110013
    10  C   -0.032717
    11  C   -0.137317
    12  C   -0.228997
    13  N   -0.267440
    14  C    0.052414
    15  H    0.063527
    16  H    0.051834
    17  H    0.073108
    18  H    0.054305
    19  H    0.031894
 Sum of Mulliken charges =  -1.00000
 Mulliken charges with hydrogens summed into heavy atoms:
               1
     1  N   -0.254083
     2  C    0.058761
     3  C   -0.032326
     4  C   -0.019504
     5  C   -0.060631
     6  C    0.009464
     7  C   -0.048622
     8  C   -0.015189
     9  C   -0.055708
    10  C   -0.032717
    11  C   -0.105423
    12  C   -0.228997
    13  N   -0.267440
    14  C    0.052414
 Electronic spatial extent (au):  <R**2>=           2742.6261
 Charge=             -1.0000 electrons
 Dipole moment (field-independent basis, Debye):
    X=              5.0225    Y=             -0.2992    Z=              0.0011  Tot=              5.0314
 Quadrupole moment (field-independent basis, Debye-Ang):
   XX=           -107.3641   YY=           -102.7996   ZZ=            -73.8328
   XY=             -4.8861   XZ=             -0.0007   YZ=              0.0031
 Traceless Quadrupole moment (field-independent basis, Debye-Ang):
   XX=            -12.6986   YY=             -8.1341   ZZ=             20.8327
   XY=             -4.8861   XZ=             -0.0007   YZ=              0.0031
 Octapole moment (field-independent basis, Debye-Ang**2):
  XXX=            136.0765  YYY=            -22.7134  ZZZ=             -0.0024  XYY=            -10.8853
  XXY=            -41.8139  XXZ=              0.0103  XZZ=             -2.9601  YZZ=              4.2484
  YYZ=              0.0138  XYZ=              0.0036
 Hexadecapole moment (field-independent basis, Debye-Ang**3):
 XXXX=          -2973.4843 YYYY=          -1437.9043 ZZZZ=            -58.0036 XXXY=            150.8250
 XXXZ=             -0.1109 YYYX=           -154.9355 YYYZ=              0.1002 ZZZX=             -0.0705
 ZZZY=              0.0587 XXYY=           -672.1397 XXZZ=           -397.6651 YYZZ=           -197.8345
 XXYZ=              0.0431 YYXZ=             -0.0002 ZZXY=              1.9440
 N-N= 7.064076043798D+02 E-N=-2.735175458692D+03  KE= 5.553697876228D+02
 Calling FoFJK, ICntrl=      2127 FMM=F ISym2X=0 I1Cent= 0 IOpClX= 0 NMat=1 NMatS=1 NMatT=0.
 ***** Axes restored to original set *****
 -------------------------------------------------------------------
 Center     Atomic                   Forces (Hartrees/Bohr)
 Number     Number              X              Y              Z
 -------------------------------------------------------------------
      1        7          -0.108363967    0.003594061   -0.000036166
      2        6           0.086785395   -0.004065012    0.000036769
      3        6          -0.007205701    0.022470210   -0.000005353
      4        6          -0.017300015   -0.005950461   -0.000003780
      5        6           0.022149369    0.003966521    0.000008893
      6        6           0.000804037    0.035456086    0.000006075
      7        6          -0.002423671   -0.023118046    0.000006378
      8        6          -0.023748278   -0.013607397   -0.000014454
      9        6          -0.019744239    0.004328419   -0.000002756
     10        6          -0.017945858    0.001558248    0.000005213
     11        6           0.014639461    0.027568564    0.000015078
     12        6           0.092188711   -0.027284949   -0.000013785
     13        7          -0.034568450   -0.106387284   -0.000005382
     14        6           0.015539507    0.088680651   -0.000000610
     15        1          -0.007795878    0.004069981    0.000001524
     16        1           0.001370165    0.007968374    0.000000872
     17        1           0.007791611   -0.004844238   -0.000001640
     18        1          -0.003160434    0.002425021    0.000005517
     19        1           0.000988235   -0.016828749   -0.000002392
 -------------------------------------------------------------------
 Cartesian Forces:  Max     0.108363967 RMS     0.031160458

 GradGradGradGradGradGradGradGradGradGradGradGradGradGradGradGradGradGrad
 Berny optimization.
 FormGI is forming the generalized inverse of G from B-inverse, IUseBI=4.
 Internal  Forces:  Max     0.111849115 RMS     0.022285350
 Search for a local minimum.
 Step number   1 out of a maximum of  102
 All quantities printed in internal units (Hartrees-Bohrs-Radians)
 Mixed Optimization -- RFO/linear search
 Second derivative matrix not updated -- first step.
 ITU=  0
     Eigenvalues ---    0.01594   0.01594   0.01797   0.01812   0.01850
     Eigenvalues ---    0.01862   0.01931   0.02044   0.02052   0.02070
     Eigenvalues ---    0.02076   0.02168   0.02177   0.02180   0.02197
     Eigenvalues ---    0.02215   0.04884   0.04884   0.16000   0.16000
     Eigenvalues ---    0.16000   0.16000   0.16000   0.22092   0.23336
     Eigenvalues ---    0.23500   0.23540   0.24910   0.25000   0.25000
     Eigenvalues ---    0.25000   0.34422   0.34888   0.34924   0.35058
     Eigenvalues ---    0.35338   0.38110   0.39781   0.39862   0.39944
     Eigenvalues ---    0.39987   0.42587   0.43281   0.45250   0.45395
     Eigenvalues ---    0.45830   0.46067   0.47006   0.47242   1.28251
     Eigenvalues ---    1.28679
 RFO step:  Lambda=-6.74683602D-02 EMin= 1.59403315D-02
 Linear search not attempted -- first point.
 Maximum step size (   0.300) exceeded in Quadratic search.
    -- Step size scaled by   0.813
 Iteration  1 RMS(Cart)=  0.05616341 RMS(Int)=  0.00135938
 Iteration  2 RMS(Cart)=  0.00233667 RMS(Int)=  0.00032271
 Iteration  3 RMS(Cart)=  0.00000103 RMS(Int)=  0.00032271
 Iteration  4 RMS(Cart)=  0.00000000 RMS(Int)=  0.00032271
 Variable       Old X    -DE/DX   Delta X   Delta X   Delta X     New X
                                 (Linear)    (Quad)   (Total)
    R1        2.19076   0.10842   0.00000   0.06527   0.06527   2.25603
    R2        2.71629   0.02156   0.00000   0.03753   0.03753   2.75382
    R3        2.66433  -0.00077   0.00000  -0.00319  -0.00348   2.66085
    R4        2.69389   0.02795   0.00000   0.04691   0.04680   2.74069
    R5        2.62860   0.02993   0.00000   0.04327   0.04309   2.67169
    R6        2.05798   0.00746   0.00000   0.01454   0.01454   2.07252
    R7        2.62645   0.01501   0.00000   0.02254   0.02265   2.64910
    R8        2.05580   0.00764   0.00000   0.01485   0.01485   2.07065
    R9        2.64086   0.04003   0.00000   0.06351   0.06379   2.70465
   R10        2.05857   0.00760   0.00000   0.01484   0.01484   2.07341
   R11        2.67780   0.05429   0.00000   0.09222   0.09225   2.77005
   R12        2.63147   0.06230   0.00000   0.09699   0.09742   2.72889
   R13        2.70059  -0.00750   0.00000  -0.01441  -0.01502   2.68557
   R14        2.65831   0.00475   0.00000   0.00483   0.00439   2.66270
   R15        2.06624   0.00287   0.00000   0.00566   0.00566   2.07190
   R16        2.63645   0.05390   0.00000   0.08123   0.08140   2.71785
   R17        2.71852   0.02364   0.00000   0.04130   0.04130   2.75981
   R18        2.62176   0.02440   0.00000   0.03780   0.03840   2.66016
   R19        2.05130   0.01410   0.00000   0.02723   0.02723   2.07853
   R20        2.18954   0.11185   0.00000   0.06712   0.06712   2.25666
    A1        2.04787   0.00296   0.00000   0.00923   0.00946   2.05733
    A2        2.12415  -0.00118   0.00000  -0.00136  -0.00113   2.12302
    A3        2.11117  -0.00178   0.00000  -0.00787  -0.00834   2.10283
    A4        2.10246   0.00431   0.00000   0.00495   0.00442   2.10689
    A5        2.10766  -0.00695   0.00000  -0.01962  -0.01935   2.08831
    A6        2.07306   0.00264   0.00000   0.01466   0.01493   2.08798
    A7        2.08619   0.00376   0.00000   0.00685   0.00672   2.09291
    A8        2.10437  -0.00461   0.00000  -0.01318  -0.01311   2.09126
    A9        2.09263   0.00085   0.00000   0.00633   0.00639   2.09902
   A10        2.10768   0.00812   0.00000   0.02620   0.02654   2.13423
   A11        2.07693   0.00123   0.00000   0.00579   0.00562   2.08254
   A12        2.09858  -0.00935   0.00000  -0.03199  -0.03216   2.06641
   A13        2.12041  -0.02641   0.00000  -0.06444  -0.06413   2.05628
   A14        2.05516   0.00612   0.00000   0.00952   0.00917   2.06433
   A15        2.10762   0.02029   0.00000   0.05493   0.05496   2.16258
   A16        2.03845   0.01199   0.00000   0.03431   0.03477   2.07323
   A17        2.20269  -0.01803   0.00000  -0.04735  -0.04692   2.15577
   A18        2.04204   0.00603   0.00000   0.01304   0.01214   2.05419
   A19        2.12020  -0.00695   0.00000  -0.02763  -0.02880   2.09141
   A20        2.09465   0.00062   0.00000   0.00361   0.00420   2.09885
   A21        2.06833   0.00633   0.00000   0.02402   0.02460   2.09293
   A22        2.08564   0.00954   0.00000   0.01769   0.01733   2.10297
   A23        2.13865  -0.01755   0.00000  -0.04157  -0.04139   2.09726
   A24        2.05889   0.00801   0.00000   0.02388   0.02406   2.08296
   A25        2.09227   0.02266   0.00000   0.06426   0.06501   2.15727
   A26        2.11423  -0.02080   0.00000  -0.06598  -0.06635   2.04788
   A27        2.07669  -0.00186   0.00000   0.00172   0.00134   2.07803
   A28        2.11859  -0.05157   0.00000  -0.12229  -0.12064   1.99796
   A29        3.15457  -0.00134   0.00000  -0.01308  -0.01308   3.14149
   A30        3.07827  -0.00378   0.00000  -0.02644  -0.02644   3.05182
   A31        3.14144   0.00001   0.00000   0.00008   0.00008   3.14152
   A32        3.14155   0.00000   0.00000  -0.00001  -0.00001   3.14155
    D1       -3.14141  -0.00001   0.00000  -0.00007  -0.00007  -3.14148
    D2        0.00010   0.00000   0.00000  -0.00004  -0.00004   0.00006
    D3       -0.00004   0.00000   0.00000   0.00001   0.00001  -0.00004
    D4        3.14146   0.00000   0.00000   0.00004   0.00004   3.14150
    D5        3.14138   0.00001   0.00000   0.00007   0.00007   3.14145
    D6       -0.00011   0.00000   0.00000   0.00001   0.00001  -0.00009
    D7        0.00002   0.00000   0.00000  -0.00001  -0.00001   0.00001
    D8       -3.14146  -0.00001   0.00000  -0.00007  -0.00007  -3.14153
    D9        0.00000   0.00000   0.00000   0.00001   0.00001   0.00001
   D10        3.14158   0.00000   0.00000   0.00001   0.00001   3.14159
   D11       -3.14151   0.00000   0.00000  -0.00002  -0.00002  -3.14153
   D12        0.00007   0.00000   0.00000  -0.00002  -0.00002   0.00005
   D13        0.00006   0.00000   0.00000  -0.00002  -0.00002   0.00004
   D14       -3.14156   0.00000   0.00000   0.00000   0.00000  -3.14157
   D15       -3.14152   0.00000   0.00000  -0.00002  -0.00002  -3.14154
   D16        0.00004   0.00000   0.00000   0.00000   0.00000   0.00004
   D17       -0.00008   0.00000   0.00000   0.00001   0.00001  -0.00007
   D18        3.14138   0.00000   0.00000   0.00004   0.00004   3.14143
   D19        3.14154   0.00000   0.00000   0.00000   0.00000   3.14154
   D20       -0.00018   0.00000   0.00000   0.00003   0.00003  -0.00015
   D21        0.00004   0.00000   0.00000   0.00000   0.00000   0.00004
   D22        3.14153   0.00000   0.00000   0.00005   0.00005   3.14158
   D23       -3.14142   0.00000   0.00000  -0.00003  -0.00003  -3.14145
   D24        0.00007   0.00000   0.00000   0.00002   0.00002   0.00009
   D25       -3.14149   0.00000   0.00000  -0.00006  -0.00006  -3.14155
   D26       -0.00003   0.00000   0.00000  -0.00004  -0.00004  -0.00006
   D27        3.14145   0.00001   0.00000   0.00006   0.00006   3.14151
   D28       -0.00001   0.00000   0.00000   0.00002   0.00002   0.00002
   D29       -0.00003   0.00000   0.00000   0.00000   0.00000  -0.00003
   D30       -3.14149   0.00000   0.00000  -0.00003  -0.00003  -3.14152
   D31       -0.00006   0.00000   0.00000   0.00000   0.00000  -0.00006
   D32        3.14153   0.00000   0.00000   0.00001   0.00001   3.14154
   D33        3.14141   0.00000   0.00000   0.00003   0.00003   3.14144
   D34       -0.00019   0.00001   0.00000   0.00005   0.00005  -0.00015
   D35        0.00010   0.00000   0.00000  -0.00001  -0.00002   0.00009
   D36       -3.14144   0.00000   0.00000   0.00000   0.00000  -3.14144
   D37       -3.14149   0.00000   0.00000  -0.00003  -0.00003  -3.14151
   D38        0.00016   0.00000   0.00000  -0.00001  -0.00001   0.00015
   D39       -0.00006   0.00001   0.00000   0.00004   0.00004  -0.00003
   D40        3.14148   0.00000   0.00000   0.00002   0.00002   3.14150
         Item               Value     Threshold  Converged?
 Maximum Force            0.111849     0.000450     NO 
 RMS     Force            0.022285     0.000300     NO 
 Maximum Displacement     0.290960     0.001800     NO 
 RMS     Displacement     0.055279     0.001200     NO 
 Predicted change in Energy=-3.556382D-02
 GradGradGradGradGradGradGradGradGradGradGradGradGradGradGradGradGradGrad

                          Input orientation:                          
 ---------------------------------------------------------------------
 Center     Atomic      Atomic             Coordinates (Angstroms)
 Number     Number       Type             X           Y           Z
 ---------------------------------------------------------------------
      1          7           0        1.035223   -0.204448   -0.014744
      2          6           0        2.229041   -0.211859   -0.014441
      3          6           0        3.686269   -0.221061   -0.014172
      4          6           0        4.352480    1.019422   -0.014090
      5          6           0        5.764955    1.080533   -0.013970
      6          6           0        6.515943   -0.103182   -0.013944
      7          6           0        5.903721   -1.396871   -0.014087
      8          6           0        4.439260   -1.460578   -0.014179
      9          6           0        3.834049   -2.746410   -0.014335
     10          6           0        4.641557   -3.901108   -0.014431
     11          6           0        6.075398   -3.788901   -0.014440
     12          6           0        6.760609   -2.559229   -0.014256
     13          7           0        3.624287   -6.350195   -0.014578
     14          6           0        4.027358   -5.226105   -0.014532
     15          1           0        3.769515    1.948384   -0.014171
     16          1           0        6.268242    2.053850   -0.013910
     17          1           0        7.611566   -0.044390   -0.013825
     18          1           0        2.741900   -2.842919   -0.014475
     19          1           0        6.655157   -4.723613   -0.014669
 ---------------------------------------------------------------------
                    Distance matrix (angstroms):
                    1          2          3          4          5
     1  N    0.000000
     2  C    1.193842   0.000000
     3  C    2.651099   1.457257   0.000000
     4  C    3.535824   2.454597   1.408061   0.000000
     5  C    4.901178   3.764700   2.452566   1.413797   0.000000
     6  C    5.481656   4.288280   2.832129   2.437378   1.401843
     7  C    5.012400   3.861027   2.509905   2.871380   2.481287
     8  C    3.628406   2.538576   1.450309   2.481518   2.866132
     9  C    3.780872   2.999999   2.529669   3.801349   4.286477
    10  C    5.164391   4.408036   3.802015   4.929014   5.106737
    11  C    6.184793   5.252588   4.293881   5.107682   4.879319
    12  C    6.190722   5.103455   3.862460   4.313448   3.773486
    13  N    6.668842   6.294909   6.129447   7.405506   7.732928
    14  C    5.845503   5.326969   5.016652   6.253983   6.541630
    15  H    3.480092   2.653245   2.171042   1.096731   2.175993
    16  H    5.699509   4.631262   3.441192   2.177197   1.095739
    17  H    6.578291   5.385130   3.929271   3.428315   2.162273
    18  H    3.142336   2.680579   2.786750   4.184692   4.953013
    19  H    7.211554   6.320319   5.393262   6.187469   5.872016
                    6          7          8          9         10
     6  C    0.000000
     7  C    1.431240   0.000000
     8  C    2.480955   1.465846   0.000000
     9  C    3.765529   2.470789   1.421142   0.000000
    10  C    4.235276   2.804329   2.448899   1.409041   0.000000
    11  C    3.711954   2.398182   2.845704   2.471929   1.438225
    12  C    2.468204   1.444068   2.568209   2.932540   2.508191
    13  N    6.883811   5.452636   4.957069   3.609885   2.651955
    14  C    5.695384   4.264243   3.787988   2.487218   1.460431
    15  H    3.428089   3.968069   3.474131   4.695238   5.914137
    16  H    2.171207   3.469921   3.961866   5.382173   6.173137
    17  H    1.097199   2.178518   3.474064   4.644411   4.867775
    18  H    4.663643   3.476804   2.189040   1.096405   2.174502
    19  H    4.622528   3.410553   3.944312   3.444994   2.175110
                   11         12         13         14         15
    11  C    0.000000
    12  C    1.407696   0.000000
    13  N    3.545162   4.920157   0.000000
    14  C    2.502004   3.818755   1.194171   0.000000
    15  H    6.183327   5.409734   8.299850   7.179121   0.000000
    16  H    5.845932   4.639280   8.810135   7.617040   2.500952
    17  H    4.047367   2.654910   7.460669   6.300534   4.328107
    18  H    3.465124   4.028710   3.616571   2.707762   4.900264
    19  H    1.099913   2.166952   3.439759   2.675412   7.269284
                   16         17         18         19
    16  H    0.000000
    17  H    2.491411   0.000000
    18  H    6.034355   5.616531   0.000000
    19  H    6.788498   4.775966   4.341727   0.000000
 Stoichiometry    C12H5N2(1-)
 Framework group  C1[X(C12H5N2)]
 Deg. of freedom    51
 Full point group                 C1      NOp   1
 Largest Abelian subgroup         C1      NOp   1
 Largest concise Abelian subgroup C1      NOp   1
                         Standard orientation:                         
 ---------------------------------------------------------------------
 Center     Atomic      Atomic             Coordinates (Angstroms)
 Number     Number       Type             X           Y           Z
 ---------------------------------------------------------------------
      1          7           0        1.759346    3.393998   -0.000441
      2          6           0        1.705552    2.201369   -0.000138
      3          6           0        1.639734    0.745599    0.000131
      4          6           0        2.853394    0.031690    0.000213
      5          6           0        2.859574   -1.382093    0.000333
      6          6           0        1.647573   -2.086519    0.000359
      7          6           0        0.378649   -1.424490    0.000216
      8          6           0        0.371895    0.041340    0.000124
      9          6           0       -0.889449    0.696057   -0.000032
     10          6           0       -2.074652   -0.065972   -0.000128
     11          6           0       -2.018245   -1.503091   -0.000137
     12          6           0       -0.816127   -2.235566    0.000047
     13          7           0       -4.482362    1.045693   -0.000275
     14          6           0       -3.374783    0.599248   -0.000229
     15          1           0        3.804307    0.578118    0.000132
     16          1           0        3.812600   -1.922820    0.000393
     17          1           0        1.663748   -3.183599    0.000478
     18          1           0       -0.943449    1.791132   -0.000172
     19          1           0       -2.974779   -2.046092   -0.000366
 ---------------------------------------------------------------------
 Rotational constants (GHZ):      1.0992053      0.5492714      0.3662545
 Standard basis: STO-3G (5D, 7F)
 There are    75 symmetry adapted cartesian basis functions of A   symmetry.
 There are    75 symmetry adapted basis functions of A   symmetry.
    75 basis functions,   225 primitive gaussians,    75 cartesian basis functions
    46 alpha electrons       46 beta electrons
       nuclear repulsion energy       696.6050775290 Hartrees.
 NAtoms=   19 NActive=   19 NUniq=   19 SFac= 1.00D+00 NAtFMM=   60 NAOKFM=F Big=F
 Integral buffers will be    131072 words long.
 Raffenetti 2 integral format.
 Two-electron integral symmetry is turned on.
 One-electron integrals computed using PRISM.
 NBasis=    75 RedAO= T EigKep=  1.72D-01  NBF=    75
 NBsUse=    75 1.00D-06 EigRej= -1.00D+00 NBFU=    75
 Initial guess from the checkpoint file:  "/tmp/bnp.472682.sequoia/Gau-2389.chk"
 B after Tr=     0.000000    0.000000    0.000000
         Rot=    0.999978   -0.000005   -0.000001   -0.006661 Ang=  -0.76 deg.
 ExpMin= 1.69D-01 ExpMax= 9.91D+01 ExpMxC= 9.91D+01 IAcc=1 IRadAn=         1 AccDes= 0.00D+00
 Harris functional with IExCor=  402 and IRadAn=       1 diagonalized for initial guess.
 HarFok:  IExCor=  402 AccDes= 0.00D+00 IRadAn=         1 IDoV= 1 UseB2=F ITyADJ=14
 ICtDFT=  3500011 ScaDFX=  1.000000  1.000000  1.000000  1.000000
 FoFCou: FMM=F IPFlag=           0 FMFlag=      100000 FMFlg1=           0
         NFxFlg=           0 DoJE=T BraDBF=F KetDBF=T FulRan=T
         wScrn=  0.000000 ICntrl=     500 IOpCl=  0 I1Cent=   200000004 NGrid=           0
         NMat0=    1 NMatS0=      1 NMatT0=    0 NMatD0=    1 NMtDS0=    0 NMtDT0=    0
 Petite list used in FoFCou.
 Keep R1 ints in memory in canonical form, NReq=4993994.
 Requested convergence on RMS density matrix=1.00D-08 within 128 cycles.
 Requested convergence on MAX density matrix=1.00D-06.
 Requested convergence on             energy=1.00D-06.
 No special actions if energy rises.
 Integral accuracy reduced to 1.0D-05 until final iterations.
 Initial convergence to 1.0D-05 achieved.  Increase integral accuracy.
 SCF Done:  E(RB3LYP) =  -562.510400849     A.U. after   18 cycles
            NFock= 18  Conv=0.75D-08     -V/T= 2.0138
 Calling FoFJK, ICntrl=      2127 FMM=F ISym2X=0 I1Cent= 0 IOpClX= 0 NMat=1 NMatS=1 NMatT=0.
 ***** Axes restored to original set *****
 -------------------------------------------------------------------
 Center     Atomic                   Forces (Hartrees/Bohr)
 Number     Number              X              Y              Z
 -------------------------------------------------------------------
      1        7          -0.015653035    0.000399182   -0.000000310
      2        6           0.011563280   -0.002579544   -0.000001171
      3        6          -0.000409958    0.008655637   -0.000005709
      4        6          -0.003858365   -0.001877149   -0.000001111
      5        6           0.009018559   -0.004755019    0.000002655
      6        6          -0.008204494    0.013496204    0.000006119
      7        6          -0.011599784   -0.005746428   -0.000005192
      8        6           0.001929795    0.000990967   -0.000000233
      9        6          -0.007454220   -0.002084127   -0.000002158
     10        6           0.001336101   -0.001926872   -0.000001692
     11        6          -0.005535574    0.010199656   -0.000006182
     12        6           0.035983687   -0.007259222    0.000008068
     13        7          -0.006098528   -0.015059827   -0.000003040
     14        6           0.002103686    0.011184454    0.000004828
     15        1          -0.001684162    0.000629164    0.000001799
     16        1          -0.000453031    0.001732054    0.000000313
     17        1           0.002266207   -0.002030577   -0.000003336
     18        1          -0.000419883    0.001076690    0.000005618
     19        1          -0.002830281   -0.005045242    0.000000732
 -------------------------------------------------------------------
 Cartesian Forces:  Max     0.035983687 RMS     0.007250332

 GradGradGradGradGradGradGradGradGradGradGradGradGradGradGradGradGradGrad
 Berny optimization.
 Using GEDIIS/GDIIS optimizer.
 FormGI is forming the generalized inverse of G from B-inverse, IUseBI=4.
 Internal  Forces:  Max     0.020926135 RMS     0.004977985
 Search for a local minimum.
 Step number   2 out of a maximum of  102
 All quantities printed in internal units (Hartrees-Bohrs-Radians)
 Mixed Optimization -- RFO/linear search
 Update second derivatives using D2CorX and points    1    2
 DE= -3.34D-02 DEPred=-3.56D-02 R= 9.38D-01
 TightC=F SS=  1.41D+00  RLast= 3.00D-01 DXNew= 5.0454D-01 8.9986D-01
 Trust test= 9.38D-01 RLast= 3.00D-01 DXMaxT set to 5.05D-01
 ITU=  1  0
 Use linear search instead of GDIIS.
     Eigenvalues ---    0.01594   0.01596   0.01800   0.01813   0.01851
     Eigenvalues ---    0.01863   0.01933   0.02046   0.02050   0.02073
     Eigenvalues ---    0.02079   0.02169   0.02178   0.02181   0.02194
     Eigenvalues ---    0.02216   0.04884   0.04904   0.15899   0.16000
     Eigenvalues ---    0.16000   0.16000   0.16025   0.22046   0.22419
     Eigenvalues ---    0.23470   0.23541   0.24738   0.24976   0.25000
     Eigenvalues ---    0.25221   0.34425   0.34886   0.34935   0.35073
     Eigenvalues ---    0.35379   0.38265   0.39806   0.39978   0.39995
     Eigenvalues ---    0.40335   0.42639   0.43080   0.45065   0.45356
     Eigenvalues ---    0.45440   0.46936   0.47056   0.50231   1.28452
     Eigenvalues ---    1.34013
 RFO step:  Lambda=-3.07861349D-03 EMin= 1.59403312D-02
 Quartic linear search produced a step of  0.35948.
 Iteration  1 RMS(Cart)=  0.03050406 RMS(Int)=  0.00082643
 Iteration  2 RMS(Cart)=  0.00134408 RMS(Int)=  0.00026376
 Iteration  3 RMS(Cart)=  0.00000023 RMS(Int)=  0.00026376
 Variable       Old X    -DE/DX   Delta X   Delta X   Delta X     New X
                                 (Linear)    (Quad)   (Total)
    R1        2.25603   0.01566   0.02346  -0.01018   0.01329   2.26932
    R2        2.75382   0.00408   0.01349  -0.00215   0.01134   2.76516
    R3        2.66085  -0.00261  -0.00125  -0.00686  -0.00829   2.65256
    R4        2.74069   0.00574   0.01682  -0.00065   0.01610   2.75679
    R5        2.67169   0.00507   0.01549  -0.00445   0.01093   2.68262
    R6        2.07252   0.00143   0.00523  -0.00070   0.00453   2.07705
    R7        2.64910  -0.00313   0.00814  -0.01895  -0.01074   2.63836
    R8        2.07065   0.00133   0.00534  -0.00123   0.00411   2.07476
    R9        2.70465   0.00791   0.02293  -0.00338   0.01973   2.72438
   R10        2.07341   0.00215   0.00533   0.00198   0.00731   2.08072
   R11        2.77005   0.00650   0.03316  -0.01642   0.01673   2.78677
   R12        2.72889   0.02093   0.03502   0.02093   0.05629   2.78518
   R13        2.68557   0.00011  -0.00540   0.00601   0.00010   2.68567
   R14        2.66270   0.00013   0.00158  -0.00321  -0.00199   2.66071
   R15        2.07190   0.00032   0.00204  -0.00116   0.00088   2.07278
   R16        2.71785   0.00736   0.02926  -0.01393   0.01548   2.73333
   R17        2.75981   0.00520   0.01484   0.00010   0.01494   2.77476
   R18        2.66016   0.01025   0.01381   0.01341   0.02771   2.68787
   R19        2.07853   0.00280   0.00979  -0.00096   0.00883   2.08736
   R20        2.25666   0.01623   0.02413  -0.01038   0.01375   2.27041
    A1        2.05733   0.00268   0.00340   0.00998   0.01354   2.07087
    A2        2.12302  -0.00272  -0.00041  -0.01439  -0.01464   2.10838
    A3        2.10283   0.00004  -0.00300   0.00440   0.00111   2.10394
    A4        2.10689  -0.00085   0.00159  -0.00937  -0.00812   2.09876
    A5        2.08831  -0.00071  -0.00696   0.00305  -0.00374   2.08458
    A6        2.08798   0.00156   0.00537   0.00632   0.01186   2.09984
    A7        2.09291   0.00061   0.00242  -0.00210   0.00023   2.09314
    A8        2.09126  -0.00155  -0.00471  -0.00485  -0.00952   2.08173
    A9        2.09902   0.00093   0.00230   0.00696   0.00930   2.10831
   A10        2.13423   0.00493   0.00954   0.01769   0.02743   2.16166
   A11        2.08254  -0.00024   0.00202   0.00111   0.00304   2.08558
   A12        2.06641  -0.00469  -0.01156  -0.01881  -0.03046   2.03595
   A13        2.05628  -0.00828  -0.02305  -0.01679  -0.03968   2.01660
   A14        2.06433  -0.00028   0.00330  -0.00866  -0.00558   2.05874
   A15        2.16258   0.00856   0.01976   0.02544   0.04526   2.20784
   A16        2.07323   0.00355   0.01250   0.00617   0.01905   2.09228
   A17        2.15577  -0.00540  -0.01687  -0.01010  -0.02658   2.12919
   A18        2.05419   0.00186   0.00436   0.00393   0.00754   2.06172
   A19        2.09141  -0.00338  -0.01035  -0.01294  -0.02430   2.06711
   A20        2.09885   0.00054   0.00151   0.00154   0.00355   2.10240
   A21        2.09293   0.00284   0.00884   0.01140   0.02075   2.11368
   A22        2.10297   0.00217   0.00623  -0.00157   0.00434   2.10731
   A23        2.09726  -0.00458  -0.01488  -0.00367  -0.01839   2.07887
   A24        2.08296   0.00240   0.00865   0.00524   0.01405   2.09700
   A25        2.15727   0.01072   0.02337   0.03460   0.05857   2.21584
   A26        2.04788  -0.01062  -0.02385  -0.04574  -0.06990   1.97798
   A27        2.07803  -0.00010   0.00048   0.01114   0.01132   2.08936
   A28        1.99796  -0.01992  -0.04337  -0.04946  -0.09141   1.90654
   A29        3.14149   0.00068  -0.00470   0.05965   0.05495   3.19643
   A30        3.05182   0.00148  -0.00951   0.05374   0.04424   3.09606
   A31        3.14152   0.00001   0.00003   0.00050   0.00053   3.14205
   A32        3.14155   0.00000   0.00000   0.00013   0.00013   3.14167
    D1       -3.14148   0.00000  -0.00003  -0.00010  -0.00012   3.14158
    D2        0.00006   0.00000  -0.00001  -0.00005  -0.00006   0.00000
    D3       -0.00004   0.00000   0.00000   0.00007   0.00007   0.00003
    D4        3.14150   0.00000   0.00001   0.00012   0.00013  -3.14155
    D5        3.14145   0.00000   0.00002   0.00006   0.00008   3.14152
    D6       -0.00009   0.00000   0.00001   0.00000   0.00000  -0.00009
    D7        0.00001   0.00000   0.00000  -0.00012  -0.00012  -0.00011
    D8       -3.14153   0.00000  -0.00002  -0.00018  -0.00020   3.14146
    D9        0.00001   0.00000   0.00000   0.00000   0.00001   0.00002
   D10        3.14159   0.00000   0.00000  -0.00001   0.00000   3.14159
   D11       -3.14153   0.00000  -0.00001  -0.00005  -0.00005  -3.14158
   D12        0.00005   0.00000  -0.00001  -0.00006  -0.00006  -0.00001
   D13        0.00004   0.00000  -0.00001  -0.00002  -0.00003   0.00001
   D14       -3.14157   0.00000   0.00000  -0.00008  -0.00008   3.14154
   D15       -3.14154   0.00000  -0.00001  -0.00001  -0.00002  -3.14156
   D16        0.00004   0.00000   0.00000  -0.00007  -0.00007  -0.00003
   D17       -0.00007   0.00000   0.00000  -0.00003  -0.00002  -0.00009
   D18        3.14143   0.00000   0.00002   0.00008   0.00009   3.14152
   D19        3.14154   0.00000   0.00000   0.00003   0.00003   3.14157
   D20       -0.00015   0.00000   0.00001   0.00014   0.00014   0.00000
   D21        0.00004   0.00000   0.00000   0.00009   0.00009   0.00013
   D22        3.14158   0.00000   0.00002   0.00015   0.00017  -3.14144
   D23       -3.14145   0.00000  -0.00001  -0.00002  -0.00003  -3.14148
   D24        0.00009   0.00000   0.00001   0.00004   0.00005   0.00014
   D25       -3.14155   0.00000  -0.00002   0.00003   0.00000  -3.14155
   D26       -0.00006   0.00000  -0.00001   0.00014   0.00012   0.00006
   D27        3.14151   0.00000   0.00002  -0.00008  -0.00006   3.14145
   D28        0.00002   0.00000   0.00001  -0.00015  -0.00014  -0.00012
   D29       -0.00003   0.00000   0.00000  -0.00014  -0.00014  -0.00017
   D30       -3.14152   0.00000  -0.00001  -0.00021  -0.00022   3.14145
   D31       -0.00006   0.00000   0.00000   0.00006   0.00006   0.00001
   D32        3.14154   0.00000   0.00000   0.00001   0.00002   3.14156
   D33        3.14144   0.00000   0.00001   0.00013   0.00014   3.14158
   D34       -0.00015   0.00000   0.00002   0.00007   0.00009  -0.00005
   D35        0.00009   0.00000  -0.00001   0.00014   0.00014   0.00023
   D36       -3.14144   0.00000   0.00000  -0.00009  -0.00009  -3.14153
   D37       -3.14151   0.00000  -0.00001   0.00019   0.00019  -3.14133
   D38        0.00015   0.00000   0.00000  -0.00004  -0.00004   0.00011
   D39       -0.00003   0.00000   0.00001  -0.00023  -0.00022  -0.00024
   D40        3.14150   0.00000   0.00001   0.00001   0.00002   3.14152
         Item               Value     Threshold  Converged?
 Maximum Force            0.020926     0.000450     NO 
 RMS     Force            0.004978     0.000300     NO 
 Maximum Displacement     0.176100     0.001800     NO 
 RMS     Displacement     0.030198     0.001200     NO 
 Predicted change in Energy=-3.373656D-03
 GradGradGradGradGradGradGradGradGradGradGradGradGradGradGradGradGradGrad

                          Input orientation:                          
 ---------------------------------------------------------------------
 Center     Atomic      Atomic             Coordinates (Angstroms)
 Number     Number       Type             X           Y           Z
 ---------------------------------------------------------------------
      1          7           0        1.028429   -0.212597   -0.014355
      2          6           0        2.228531   -0.255586   -0.014674
      3          6           0        3.691524   -0.227734   -0.014412
      4          6           0        4.341005    1.016645   -0.014194
      5          6           0        5.759024    1.083241   -0.013926
      6          6           0        6.511580   -0.092737   -0.013898
      7          6           0        5.936034   -1.414548   -0.014147
      8          6           0        4.462247   -1.466352   -0.014325
      9          6           0        3.836679   -2.742462   -0.014379
     10          6           0        4.653276   -3.889455   -0.014467
     11          6           0        6.094810   -3.770718   -0.014492
     12          6           0        6.853797   -2.567786   -0.014178
     13          7           0        3.556323   -6.322722   -0.014583
     14          6           0        4.022515   -5.215410   -0.014484
     15          1           0        3.742360    1.938439   -0.014227
     16          1           0        6.250380    2.065068   -0.013763
     17          1           0        7.611015   -0.032770   -0.013743
     18          1           0        2.742960   -2.825545   -0.014373
     19          1           0        6.614042   -4.745655   -0.014629
 ---------------------------------------------------------------------
                    Distance matrix (angstroms):
                    1          2          3          4          5
     1  N    0.000000
     2  C    1.200872   0.000000
     3  C    2.663138   1.463258   0.000000
     4  C    3.533298   2.465992   1.403676   0.000000
     5  C    4.904867   3.775823   2.448104   1.419582   0.000000
     6  C    5.484461   4.286144   2.823286   2.437648   1.396161
     7  C    5.052650   3.884427   2.538967   2.907717   2.504053
     8  C    3.655544   2.540756   1.458831   2.485956   2.860430
     9  C    3.779746   2.961536   2.518914   3.792787   4.281520
    10  C    5.163216   4.368569   3.785917   4.916028   5.094152
    11  C    6.190997   5.225349   4.281182   5.098498   4.865559
    12  C    6.283457   5.171011   3.933932   4.377474   3.811631
    13  N    6.612403   6.210731   6.096487   7.381195   7.726589
    14  C    5.830325   5.274300   4.998646   6.240188   6.533641
    15  H    3.463001   2.665600   2.166770   1.099127   2.190502
    16  H    5.697063   4.643350   3.435795   2.178280   1.097914
    17  H    6.585042   5.387094   3.924337   3.434274   2.162256
    18  H    3.125238   2.620940   2.765573   4.161270   4.937130
    19  H    7.193587   6.276419   5.380773   6.194417   5.891272
                    6          7          8          9         10
     6  C    0.000000
     7  C    1.441679   0.000000
     8  C    2.467101   1.474698   0.000000
     9  C    3.765121   2.484079   1.421193   0.000000
    10  C    4.227099   2.787586   2.430621   1.407986   0.000000
    11  C    3.701519   2.361514   2.824069   2.481223   1.446416
    12  C    2.498596   1.473855   2.632997   3.022171   2.566925
    13  N    6.895380   5.454649   4.940144   3.591220   2.669100
    14  C    5.695369   4.255362   3.774758   2.479921   1.468338
    15  H    3.434277   4.006835   3.480064   4.681851   5.898654
    16  H    2.173557   3.493786   3.958327   5.379433   6.164989
    17  H    1.101069   2.171375   3.459754   4.646293   4.860272
    18  H    4.655184   3.490936   2.191655   1.096870   2.186599
    19  H    4.654046   3.399407   3.922250   3.424402   2.139552
                   11         12         13         14         15
    11  C    0.000000
    12  C    1.422359   0.000000
    13  N    3.599534   4.997287   0.000000
    14  C    2.526172   3.876348   1.201447   0.000000
    15  H    6.174828   5.476049   8.263256   7.159333   0.000000
    16  H    5.837859   4.671986   8.809822   7.613721   2.511215
    17  H    4.033749   2.645692   7.483584   6.303736   4.341907
    18  H    3.482564   4.118911   3.590517   2.710852   4.867684
    19  H    1.104583   2.191026   3.440464   2.633759   7.274866
                   16         17         18         19
    16  H    0.000000
    17  H    2.500451   0.000000
    18  H    6.018313   5.612268   0.000000
    19  H    6.820425   4.817181   4.321123   0.000000
 Stoichiometry    C12H5N2(1-)
 Framework group  C1[X(C12H5N2)]
 Deg. of freedom    51
 Full point group                 C1      NOp   1
 Largest Abelian subgroup         C1      NOp   1
 Largest concise Abelian subgroup C1      NOp   1
                         Standard orientation:                         
 ---------------------------------------------------------------------
 Center     Atomic      Atomic             Coordinates (Angstroms)
 Number     Number       Type             X           Y           Z
 ---------------------------------------------------------------------
      1          7           0        1.729990    3.416136   -0.000039
      2          6           0        1.648082    2.218061   -0.000358
      3          6           0        1.628446    0.754934   -0.000096
      4          6           0        2.851095    0.065417    0.000122
      5          6           0        2.871642   -1.354017    0.000390
      6          6           0        1.671863   -2.068017    0.000418
      7          6           0        0.369424   -1.449882    0.000169
      8          6           0        0.365470    0.024810   -0.000009
      9          6           0       -0.889668    0.691457   -0.000063
     10          6           0       -2.062555   -0.087491   -0.000151
     11          6           0       -1.990657   -1.532119   -0.000176
     12          6           0       -0.812988   -2.329741    0.000138
     13          7           0       -4.458945    1.087842   -0.000267
     14          6           0       -3.367344    0.585964   -0.000168
     15          1           0        3.791829    0.633835    0.000089
     16          1           0        3.837008   -1.876974    0.000553
     17          1           0        1.696123   -3.168819    0.000573
     18          1           0       -0.937216    1.787296   -0.000057
     19          1           0       -2.981929   -2.019442   -0.000313
 ---------------------------------------------------------------------
 Rotational constants (GHZ):      1.0777410      0.5540765      0.3659423
 Standard basis: STO-3G (5D, 7F)
 There are    75 symmetry adapted cartesian basis functions of A   symmetry.
 There are    75 symmetry adapted basis functions of A   symmetry.
    75 basis functions,   225 primitive gaussians,    75 cartesian basis functions
    46 alpha electrons       46 beta electrons
       nuclear repulsion energy       694.6641211296 Hartrees.
 NAtoms=   19 NActive=   19 NUniq=   19 SFac= 1.00D+00 NAtFMM=   60 NAOKFM=F Big=F
 Integral buffers will be    131072 words long.
 Raffenetti 2 integral format.
 Two-electron integral symmetry is turned on.
 One-electron integrals computed using PRISM.
 NBasis=    75 RedAO= T EigKep=  1.76D-01  NBF=    75
 NBsUse=    75 1.00D-06 EigRej= -1.00D+00 NBFU=    75
 Initial guess from the checkpoint file:  "/tmp/bnp.472682.sequoia/Gau-2389.chk"
 B after Tr=     0.000000    0.000000    0.000000
         Rot=    0.999996   -0.000008   -0.000001   -0.002865 Ang=  -0.33 deg.
 ExpMin= 1.69D-01 ExpMax= 9.91D+01 ExpMxC= 9.91D+01 IAcc=1 IRadAn=         1 AccDes= 0.00D+00
 Harris functional with IExCor=  402 and IRadAn=       1 diagonalized for initial guess.
 HarFok:  IExCor=  402 AccDes= 0.00D+00 IRadAn=         1 IDoV= 1 UseB2=F ITyADJ=14
 ICtDFT=  3500011 ScaDFX=  1.000000  1.000000  1.000000  1.000000
 FoFCou: FMM=F IPFlag=           0 FMFlag=      100000 FMFlg1=           0
         NFxFlg=           0 DoJE=T BraDBF=F KetDBF=T FulRan=T
         wScrn=  0.000000 ICntrl=     500 IOpCl=  0 I1Cent=   200000004 NGrid=           0
         NMat0=    1 NMatS0=      1 NMatT0=    0 NMatD0=    1 NMtDS0=    0 NMtDT0=    0
 Petite list used in FoFCou.
 Keep R1 ints in memory in canonical form, NReq=4993994.
 Requested convergence on RMS density matrix=1.00D-08 within 128 cycles.
 Requested convergence on MAX density matrix=1.00D-06.
 Requested convergence on             energy=1.00D-06.
 No special actions if energy rises.
 Integral accuracy reduced to 1.0D-05 until final iterations.
 Initial convergence to 1.0D-05 achieved.  Increase integral accuracy.
 SCF Done:  E(RB3LYP) =  -562.514005500     A.U. after   14 cycles
            NFock= 14  Conv=0.51D-08     -V/T= 2.0140
 Calling FoFJK, ICntrl=      2127 FMM=F ISym2X=0 I1Cent= 0 IOpClX= 0 NMat=1 NMatS=1 NMatT=0.
 ***** Axes restored to original set *****
 -------------------------------------------------------------------
 Center     Atomic                   Forces (Hartrees/Bohr)
 Number     Number              X              Y              Z
 -------------------------------------------------------------------
      1        7           0.001087353   -0.001733311   -0.000017549
      2        6          -0.000568228    0.003134158    0.000032299
      3        6           0.000869411   -0.000852980   -0.000009966
      4        6          -0.002679224    0.000468720   -0.000001716
      5        6           0.002084673   -0.000495392    0.000001606
      6        6           0.001069770    0.001301934   -0.000001945
      7        6          -0.008059858    0.005003541    0.000002496
      8        6           0.003686192    0.000447149   -0.000001035
      9        6          -0.002205150   -0.001516095   -0.000003583
     10        6           0.002331337   -0.000213749    0.000002818
     11        6          -0.003315082   -0.003946248    0.000004128
     12        6           0.004016618   -0.002334484   -0.000002041
     13        7           0.000980845    0.001870259    0.000001433
     14        6          -0.000665434   -0.001001214   -0.000002917
     15        1           0.000561400   -0.000240685   -0.000002059
     16        1          -0.000163283   -0.000429283    0.000000571
     17        1          -0.000297836    0.000105167    0.000000048
     18        1           0.000206418    0.000140916   -0.000000067
     19        1           0.001060079    0.000291595   -0.000002523
 -------------------------------------------------------------------
 Cartesian Forces:  Max     0.008059858 RMS     0.001887534

 GradGradGradGradGradGradGradGradGradGradGradGradGradGradGradGradGradGrad
 Berny optimization.
 Using GEDIIS/GDIIS optimizer.
 FormGI is forming the generalized inverse of G from B-inverse, IUseBI=4.
 Internal  Forces:  Max     0.005423692 RMS     0.001017732
 Search for a local minimum.
 Step number   3 out of a maximum of  102
 All quantities printed in internal units (Hartrees-Bohrs-Radians)
 Mixed Optimization -- RFO/linear search
 Update second derivatives using D2CorX and points    1    2    3
 DE= -3.60D-03 DEPred=-3.37D-03 R= 1.07D+00
 TightC=F SS=  1.41D+00  RLast= 1.92D-01 DXNew= 8.4853D-01 5.7652D-01
 Trust test= 1.07D+00 RLast= 1.92D-01 DXMaxT set to 5.77D-01
 ITU=  1  1  0
 Use linear search instead of GDIIS.
     Eigenvalues ---    0.01594   0.01660   0.01802   0.01814   0.01852
     Eigenvalues ---    0.01864   0.01933   0.02045   0.02051   0.02074
     Eigenvalues ---    0.02080   0.02170   0.02178   0.02181   0.02194
     Eigenvalues ---    0.02216   0.04884   0.04956   0.15897   0.16000
     Eigenvalues ---    0.16000   0.16016   0.16117   0.21066   0.22113
     Eigenvalues ---    0.23459   0.23598   0.24600   0.24999   0.25029
     Eigenvalues ---    0.25287   0.34425   0.34877   0.34942   0.35081
     Eigenvalues ---    0.35311   0.38125   0.39274   0.39863   0.39987
     Eigenvalues ---    0.40077   0.41699   0.42695   0.44007   0.45394
     Eigenvalues ---    0.45543   0.46924   0.47050   0.50396   1.28434
     Eigenvalues ---    1.35663
 RFO step:  Lambda=-9.75128194D-04 EMin= 1.59403336D-02
 Quartic linear search produced a step of -0.04384.
 Iteration  1 RMS(Cart)=  0.04305035 RMS(Int)=  0.00477912
 Iteration  2 RMS(Cart)=  0.00648331 RMS(Int)=  0.00006817
 Iteration  3 RMS(Cart)=  0.00009715 RMS(Int)=  0.00000484
 Iteration  4 RMS(Cart)=  0.00000002 RMS(Int)=  0.00000484
 Variable       Old X    -DE/DX   Delta X   Delta X   Delta X     New X
                                 (Linear)    (Quad)   (Total)
    R1        2.26932  -0.00115  -0.00058   0.00175   0.00116   2.27048
    R2        2.76516  -0.00055  -0.00050   0.00075   0.00025   2.76541
    R3        2.65256  -0.00009   0.00036  -0.00137  -0.00100   2.65156
    R4        2.75679   0.00042  -0.00071   0.00370   0.00300   2.75979
    R5        2.68262   0.00132  -0.00048   0.00493   0.00445   2.68707
    R6        2.07705  -0.00051  -0.00020  -0.00057  -0.00077   2.07628
    R7        2.63836  -0.00118   0.00047  -0.00365  -0.00318   2.63518
    R8        2.07476  -0.00046  -0.00018  -0.00049  -0.00067   2.07409
    R9        2.72438   0.00091  -0.00086   0.00537   0.00450   2.72888
   R10        2.08072  -0.00029  -0.00032   0.00044   0.00012   2.08083
   R11        2.78677  -0.00341  -0.00073  -0.00448  -0.00521   2.78156
   R12        2.78518   0.00542  -0.00247   0.02054   0.01806   2.80324
   R13        2.68567   0.00247   0.00000   0.00541   0.00541   2.69108
   R14        2.66071   0.00148   0.00009   0.00277   0.00287   2.66357
   R15        2.07278  -0.00022  -0.00004  -0.00042  -0.00045   2.07233
   R16        2.73333  -0.00160  -0.00068  -0.00016  -0.00084   2.73249
   R17        2.77476  -0.00092  -0.00065   0.00042  -0.00024   2.77452
   R18        2.68787   0.00213  -0.00121   0.00894   0.00771   2.69558
   R19        2.08736   0.00024  -0.00039   0.00223   0.00185   2.08921
   R20        2.27041  -0.00210  -0.00060   0.00112   0.00052   2.27093
    A1        2.07087  -0.00037  -0.00059   0.00071   0.00011   2.07098
    A2        2.10838  -0.00037   0.00064  -0.00361  -0.00297   2.10541
    A3        2.10394   0.00073  -0.00005   0.00290   0.00286   2.10680
    A4        2.09876  -0.00055   0.00036  -0.00283  -0.00247   2.09629
    A5        2.08458   0.00063   0.00016   0.00218   0.00234   2.08692
    A6        2.09984  -0.00008  -0.00052   0.00065   0.00013   2.09998
    A7        2.09314  -0.00033  -0.00001  -0.00055  -0.00056   2.09258
    A8        2.08173   0.00021   0.00042  -0.00094  -0.00053   2.08121
    A9        2.10831   0.00012  -0.00041   0.00150   0.00109   2.10940
   A10        2.16166  -0.00044  -0.00120   0.00256   0.00135   2.16301
   A11        2.08558   0.00009  -0.00013   0.00065   0.00052   2.08610
   A12        2.03595   0.00035   0.00134  -0.00321  -0.00187   2.03408
   A13        2.01660   0.00146   0.00174  -0.00161   0.00012   2.01672
   A14        2.05874  -0.00076   0.00024  -0.00346  -0.00321   2.05554
   A15        2.20784  -0.00069  -0.00198   0.00507   0.00308   2.21093
   A16        2.09228  -0.00087  -0.00083  -0.00046  -0.00130   2.09098
   A17        2.12919   0.00065   0.00117  -0.00139  -0.00023   2.12896
   A18        2.06172   0.00022  -0.00033   0.00184   0.00153   2.06325
   A19        2.06711   0.00016   0.00107  -0.00405  -0.00297   2.06414
   A20        2.10240  -0.00021  -0.00016  -0.00013  -0.00029   2.10211
   A21        2.11368   0.00005  -0.00091   0.00418   0.00326   2.11694
   A22        2.10731   0.00083  -0.00019   0.00371   0.00353   2.11084
   A23        2.07887  -0.00033   0.00081  -0.00428  -0.00348   2.07539
   A24        2.09700  -0.00050  -0.00062   0.00057  -0.00005   2.09695
   A25        2.21584  -0.00111  -0.00257   0.00503   0.00245   2.21829
   A26        1.97798   0.00167   0.00306  -0.00224   0.00083   1.97881
   A27        2.08936  -0.00057  -0.00050  -0.00279  -0.00328   2.08608
   A28        1.90654   0.00058   0.00401  -0.01160  -0.00762   1.89893
   A29        3.19643  -0.00384  -0.00241  -0.21000  -0.21240   2.98403
   A30        3.09606  -0.00041  -0.00194  -0.00157  -0.00351   3.09255
   A31        3.14205  -0.00004  -0.00002  -0.00209  -0.00211   3.13994
   A32        3.14167   0.00000  -0.00001  -0.00003  -0.00003   3.14164
    D1        3.14158   0.00000   0.00001  -0.00003  -0.00002   3.14156
    D2        0.00000   0.00000   0.00000  -0.00003  -0.00002  -0.00003
    D3        0.00003   0.00000   0.00000  -0.00006  -0.00006  -0.00003
    D4       -3.14155   0.00000  -0.00001  -0.00005  -0.00006   3.14157
    D5        3.14152   0.00000   0.00000   0.00002   0.00002   3.14154
    D6       -0.00009   0.00000   0.00000   0.00002   0.00002  -0.00007
    D7       -0.00011   0.00000   0.00001   0.00005   0.00005  -0.00006
    D8        3.14146   0.00000   0.00001   0.00005   0.00006   3.14152
    D9        0.00002   0.00000   0.00000   0.00004   0.00004   0.00006
   D10        3.14159   0.00000   0.00000   0.00002   0.00002  -3.14157
   D11       -3.14158   0.00000   0.00000   0.00004   0.00004  -3.14154
   D12       -0.00001   0.00000   0.00000   0.00002   0.00002   0.00001
   D13        0.00001   0.00000   0.00000  -0.00002  -0.00002   0.00000
   D14        3.14154   0.00000   0.00000  -0.00002  -0.00002   3.14152
   D15       -3.14156   0.00000   0.00000   0.00000   0.00000  -3.14156
   D16       -0.00003   0.00000   0.00000  -0.00001   0.00000  -0.00004
   D17       -0.00009   0.00000   0.00000   0.00001   0.00001  -0.00008
   D18        3.14152   0.00000   0.00000  -0.00001  -0.00002   3.14150
   D19        3.14157   0.00000   0.00000   0.00002   0.00001   3.14159
   D20        0.00000   0.00000  -0.00001  -0.00001  -0.00001  -0.00002
[...]
 ! D15   D(16,5,6,7)          -179.9993         -DE/DX =    0.0                 !
 ! D16   D(16,5,6,17)           -0.0006         -DE/DX =    0.0                 !
 ! D17   D(5,6,7,8)             -0.002          -DE/DX =    0.0                 !
 ! D18   D(5,6,7,12)           179.9973         -DE/DX =    0.0                 !
 ! D19   D(17,6,7,8)           179.9993         -DE/DX =    0.0                 !
 ! D20   D(17,6,7,12)           -0.0014         -DE/DX =    0.0                 !
 ! D21   D(6,7,8,3)              0.003          -DE/DX =    0.0                 !
 ! D22   D(6,7,8,9)           -179.9963         -DE/DX =    0.0                 !
 ! D23   D(12,7,8,3)          -179.9962         -DE/DX =    0.0                 !
 ! D24   D(12,7,8,9)             0.0044         -DE/DX =    0.0                 !
 ! D25   D(6,7,12,11)         -179.9996         -DE/DX =    0.0                 !
 ! D26   D(8,7,12,11)           -0.0004         -DE/DX =    0.0                 !
 ! D27   D(3,8,9,10)           179.9972         -DE/DX =    0.0                 !
 ! D28   D(3,8,9,18)            -0.0029         -DE/DX =    0.0                 !
 ! D29   D(7,8,9,10)            -0.0035         -DE/DX =    0.0                 !
 ! D30   D(7,8,9,18)           179.9964         -DE/DX =    0.0                 !
 ! D31   D(8,9,10,11)           -0.001          -DE/DX =    0.0                 !
 ! D32   D(8,9,10,14)          179.9988         -DE/DX =    0.0                 !
 ! D33   D(18,9,10,11)         179.9991         -DE/DX =    0.0                 !
 ! D34   D(18,9,10,14)          -0.0011         -DE/DX =    0.0                 !
 ! D35   D(9,10,11,12)           0.0057         -DE/DX =    0.0                 !
 ! D36   D(9,10,11,19)        -179.9961         -DE/DX =    0.0                 !
 ! D37   D(14,10,11,12)       -179.9941         -DE/DX =    0.0                 !
 ! D38   D(14,10,11,19)          0.0041         -DE/DX =    0.0                 !
 ! D39   D(10,11,12,7)          -0.0046         -DE/DX =    0.0                 !
 ! D40   D(19,11,12,7)         179.9972         -DE/DX =    0.0                 !
 --------------------------------------------------------------------------------
 GradGradGradGradGradGradGradGradGradGradGradGradGradGradGradGradGradGrad

                          Input orientation:                          
 ---------------------------------------------------------------------
 Center     Atomic      Atomic             Coordinates (Angstroms)
 Number     Number       Type             X           Y           Z
 ---------------------------------------------------------------------
      1          7           0        1.031225   -0.261990   -0.014549
      2          6           0        2.231493   -0.249278   -0.014498
      3          6           0        3.693778   -0.219494   -0.014301
      4          6           0        4.344195    1.023523   -0.014129
      5          6           0        5.764581    1.087209   -0.013952
      6          6           0        6.511996   -0.090364   -0.013967
      7          6           0        5.926841   -1.408744   -0.014156
      8          6           0        4.460434   -1.462534   -0.014294
      9          6           0        3.832499   -2.740653   -0.014403
     10          6           0        4.650648   -3.887853   -0.014449
     11          6           0        6.089569   -3.774881   -0.014410
     12          6           0        6.851931   -2.569739   -0.014210
     13          7           0        3.555607   -6.320188   -0.014621
     14          6           0        4.018266   -5.212431   -0.014536
     15          1           0        3.749904    1.947310   -0.014140
     16          1           0        6.257938    2.067387   -0.013815
     17          1           0        7.611282   -0.036816   -0.013849
     18          1           0        2.739217   -2.822783   -0.014448
     19          1           0        6.615130   -4.746362   -0.014522
 ---------------------------------------------------------------------
                    Distance matrix (angstroms):
                    1          2          3          4          5
     1  N    0.000000
     2  C    1.200335   0.000000
     3  C    2.662892   1.462588   0.000000
     4  C    3.553634   2.466482   1.402902   0.000000
     5  C    4.921889   3.777421   2.448611   1.421813   0.000000
     6  C    5.483458   4.283453   2.821175   2.437234   1.394743
     7  C    5.028131   3.872978   2.529997   2.901843   2.501221
     8  C    3.633288   2.537749   1.460449   2.488774   2.863911
     9  C    3.740442   2.961447   2.524973   3.798797   4.287828
    10  C    5.123193   4.369387   3.791103   4.920928   5.098243
    11  C    6.158510   5.226339   4.287259   5.105978   4.872939
    12  C    6.261495   5.170395   3.936697   4.381811   3.815179
    13  N    6.563099   6.213632   6.102259   7.385930   7.729753
    14  C    5.781806   5.274983   5.003471   6.244466   6.537207
    15  H    3.503173   2.670313   2.167530   1.098437   2.190593
    16  H    5.722283   4.645341   3.435803   2.179923   1.097338
    17  H    6.583908   5.383983   3.921761   3.434847   2.161883
    18  H    3.078132   2.623111   2.772779   4.167737   4.943770
    19  H    7.161674   6.280130   5.387655   6.200703   5.895250
                    6          7          8          9         10
     6  C    0.000000
     7  C    1.442405   0.000000
     8  C    2.468149   1.467393   0.000000
     9  C    3.768785   2.481985   1.424040   0.000000
    10  C    4.229130   2.788306   2.432767   1.409055   0.000000
    11  C    3.708654   2.371726   2.828609   2.482739   1.443349
    12  C    2.502570   1.484486   2.635367   3.024265   2.565750
    13  N    6.895720   5.453901   4.941206   3.590228   2.667465
    14  C    5.696864   4.255666   3.775876   2.478749   1.467792
    15  H    3.432385   4.000269   3.483086   4.688690   5.904275
    16  H    2.172656   3.491864   3.961232   5.385165   6.168328
    17  H    1.100589   2.172447   3.458397   4.646497   4.857555
    18  H    4.658324   3.487184   2.193825   1.096362   2.188137
    19  H    4.657140   3.407849   3.927625   3.430146   2.143881
                   11         12         13         14         15
    11  C    0.000000
    12  C    1.426031   0.000000
    13  N    3.591594   4.993157   0.000000
    14  C    2.521278   3.874723   1.200491   0.000000
    15  H    6.182030   5.479626   8.269781   7.164769   0.000000
    16  H    5.844693   4.675014   8.812151   7.616553   2.510907
    17  H    4.035931   2.644297   7.478587   6.300536   4.341313
    18  H    3.483008   4.120491   3.591425   2.710422   4.875990
    19  H    1.104531   2.189466   3.440583   2.638356   7.281123
                   16         17         18         19
    16  H    0.000000
    17  H    2.501842   0.000000
    18  H    6.024546   5.612364   0.000000
    19  H    6.823104   4.813744   4.326991   0.000000
 Stoichiometry    C12H5N2(1-)
 Framework group  C1[X(C12H5N2)]
 Deg. of freedom    51
 Full point group                 C1      NOp   1
 Largest Abelian subgroup         C1      NOp   1
 Largest concise Abelian subgroup C1      NOp   1
                         Standard orientation:                         
 ---------------------------------------------------------------------
 Center     Atomic      Atomic             Coordinates (Angstroms)
 Number     Number       Type             X           Y           Z
 ---------------------------------------------------------------------
      1          7           0        1.658630    3.425419   -0.000232
      2          6           0        1.640424    2.225222   -0.000182
      3          6           0        1.632536    0.762655    0.000016
      4          6           0        2.858389    0.080439    0.000187
      5          6           0        2.885470   -1.341116    0.000364
      6          6           0        1.689038   -2.057954    0.000350
      7          6           0        0.386166   -1.439037    0.000160
      8          6           0        0.370162    0.028269    0.000022
      9          6           0       -0.891360    0.688915   -0.000087
     10          6           0       -2.059251   -0.099416   -0.000133
     11          6           0       -1.983377   -1.540769   -0.000093
     12          6           0       -0.798269   -2.333918    0.000107
     13          7           0       -4.462576    1.057908   -0.000304
     14          6           0       -3.367102    0.566871   -0.000219
     15          1           0        3.797175    0.650740    0.000176
     16          1           0        3.852616   -1.859554    0.000501
     17          1           0        1.714255   -3.158254    0.000467
     18          1           0       -0.945304    1.783949   -0.000132
     19          1           0       -2.968071   -2.041135   -0.000206
 ---------------------------------------------------------------------
 Rotational constants (GHZ):      1.0789107      0.5549045      0.3664382

 **********************************************************************

            Population analysis using the SCF density.

 **********************************************************************

 Orbital symmetries:
       Occupied  (A) (A) (A) (A) (A) (A) (A) (A) (A) (A) (A) (A)
                 (A) (A) (A) (A) (A) (A) (A) (A) (A) (A) (A) (A)
                 (A) (A) (A) (A) (A) (A) (A) (A) (A) (A) (A) (A)
                 (A) (A) (A) (A) (A) (A) (A) (A) (A) (A)
       Virtual   (A) (A) (A) (A) (A) (A) (A) (A) (A) (A) (A) (A)
                 (A) (A) (A) (A) (A) (A) (A) (A) (A) (A) (A) (A)
                 (A) (A) (A) (A) (A)
 The electronic state is 1-A.
 Alpha  occ. eigenvalues --  -13.98919 -13.96852  -9.90214  -9.89397  -9.88559
 Alpha  occ. eigenvalues --   -9.87536  -9.87357  -9.86761  -9.86667  -9.86393
 Alpha  occ. eigenvalues --   -9.84252  -9.83038  -9.79589  -9.66685  -0.72462
 Alpha  occ. eigenvalues --   -0.70648  -0.66907  -0.61850  -0.57923  -0.54669
 Alpha  occ. eigenvalues --   -0.50203  -0.45422  -0.42024  -0.40042  -0.34092
 Alpha  occ. eigenvalues --   -0.31580  -0.30964  -0.27874  -0.24494  -0.23451
 Alpha  occ. eigenvalues --   -0.20967  -0.20389  -0.19194  -0.16787  -0.16546
 Alpha  occ. eigenvalues --   -0.14556  -0.14451  -0.13938  -0.13539  -0.11801
 Alpha  occ. eigenvalues --   -0.10248  -0.09584  -0.06327  -0.02814   0.02065
 Alpha  occ. eigenvalues --    0.11146
 Alpha virt. eigenvalues --    0.16630   0.21255   0.25776   0.25923   0.27931
 Alpha virt. eigenvalues --    0.29048   0.34382   0.37778   0.43207   0.46013
 Alpha virt. eigenvalues --    0.46044   0.49608   0.53293   0.56687   0.57940
 Alpha virt. eigenvalues --    0.58852   0.60655   0.63635   0.66554   0.69189
 Alpha virt. eigenvalues --    0.71099   0.76207   0.78015   0.81886   0.85042
 Alpha virt. eigenvalues --    0.91403   0.92947   1.06655   1.08380
          Condensed to atoms (all electrons):
               1          2          3          4          5          6
     1  N    6.592094   0.659133  -0.010728  -0.000134  -0.000001   0.000000
     2  C    0.659133   4.938229   0.417207  -0.031563   0.000921   0.000005
     3  C   -0.010728   0.417207   4.786570   0.509855  -0.029400  -0.010055
     4  C   -0.000134  -0.031563   0.509855   4.825990   0.481399  -0.028966
     5  C   -0.000001   0.000921  -0.029400   0.481399   4.841366   0.513804
     6  C    0.000000   0.000005  -0.010055  -0.028966   0.513804   4.839769
     7  C   -0.000001   0.000655  -0.022151  -0.008096  -0.025245   0.464096
     8  C   -0.000013  -0.025848   0.446665  -0.027756  -0.008051  -0.033742
     9  C   -0.000116  -0.004112  -0.029194   0.000688   0.000037   0.000887
    10  C    0.000000   0.000016   0.000797  -0.000007   0.000000   0.000017
    11  C    0.000000   0.000000   0.000047   0.000001  -0.000015   0.001404
    12  C    0.000000  -0.000003   0.000543   0.000014   0.000748  -0.034565
    13  N    0.000000   0.000000   0.000000   0.000000   0.000000   0.000000
    14  C    0.000000   0.000000  -0.000005   0.000000   0.000000   0.000000
    15  H    0.000059  -0.003745  -0.025551   0.386777  -0.024435   0.001347
    16  H    0.000000  -0.000018   0.001329  -0.026048   0.387722  -0.024980
    17  H    0.000000   0.000001   0.000031   0.001449  -0.026833   0.383447
    18  H   -0.000139   0.001433  -0.003594   0.000017  -0.000001  -0.000020
    19  H    0.000000   0.000000   0.000001   0.000000   0.000000  -0.000015
               7          8          9         10         11         12
     1  N   -0.000001  -0.000013  -0.000116   0.000000   0.000000   0.000000
     2  C    0.000655  -0.025848  -0.004112   0.000016   0.000000  -0.000003
     3  C   -0.022151   0.446665  -0.029194   0.000797   0.000047   0.000543
     4  C   -0.008096  -0.027756   0.000688  -0.000007   0.000001   0.000014
     5  C   -0.025245  -0.008051   0.000037   0.000000  -0.000015   0.000748
     6  C    0.464096  -0.033742   0.000887   0.000017   0.001404  -0.034565
     7  C    4.899837   0.436379  -0.029837  -0.013385  -0.029127   0.392613
     8  C    0.436379   4.824211   0.483971  -0.028784  -0.011679  -0.017397
     9  C   -0.029837   0.483971   4.867405   0.500239  -0.030317  -0.005947
    10  C   -0.013385  -0.028784   0.500239   4.802950   0.449818  -0.017730
    11  C   -0.029127  -0.011679  -0.030317   0.449818   4.948951   0.450757
    12  C    0.392613  -0.017397  -0.005947  -0.017730   0.450757   5.478891
    13  N    0.000000  -0.000002  -0.000024  -0.010721  -0.000159  -0.000001
    14  C    0.000046   0.000949  -0.031320   0.409229  -0.025700   0.000665
    15  H    0.000023   0.001221  -0.000016   0.000000   0.000000   0.000000
    16  H    0.001250   0.000006   0.000001   0.000000   0.000000  -0.000017
    17  H   -0.025816   0.001437  -0.000017   0.000000   0.000032  -0.001529
    18  H    0.001146  -0.024543   0.387364  -0.024276   0.001117   0.000000
    19  H    0.002237   0.000011   0.001295  -0.035698   0.381670  -0.031684
              13         14         15         16         17         18
     1  N    0.000000   0.000000   0.000059   0.000000   0.000000  -0.000139
     2  C    0.000000   0.000000  -0.003745  -0.000018   0.000001   0.001433
     3  C    0.000000  -0.000005  -0.025551   0.001329   0.000031  -0.003594
     4  C    0.000000   0.000000   0.386777  -0.026048   0.001449   0.000017
     5  C    0.000000   0.000000  -0.024435   0.387722  -0.026833  -0.000001
     6  C    0.000000   0.000000   0.001347  -0.024980   0.383447  -0.000020
     7  C    0.000000   0.000046   0.000023   0.001250  -0.025816   0.001146
     8  C   -0.000002   0.000949   0.001221   0.000006   0.001437  -0.024543
     9  C   -0.000024  -0.031320  -0.000016   0.000001  -0.000017   0.387364
    10  C   -0.010721   0.409229   0.000000   0.000000   0.000000  -0.024276
    11  C   -0.000159  -0.025700   0.000000   0.000000   0.000032   0.001117
    12  C   -0.000001   0.000665   0.000000  -0.000017  -0.001529   0.000000
    13  N    6.606051   0.658405   0.000000   0.000000   0.000000   0.000068
    14  C    0.658405   4.953776   0.000000   0.000000   0.000000  -0.003659
    15  H    0.000000   0.000000   0.606772  -0.003384  -0.000034  -0.000001
    16  H    0.000000   0.000000  -0.003384   0.616944  -0.003750   0.000000
    17  H    0.000000   0.000000  -0.000034  -0.003750   0.604088   0.000000
    18  H    0.000068  -0.003659  -0.000001   0.000000   0.000000   0.606140
    19  H    0.000103  -0.003774   0.000000   0.000000  -0.000003  -0.000039
              19
     1  N    0.000000
     2  C    0.000000
     3  C    0.000001
     4  C    0.000000
     5  C    0.000000
     6  C   -0.000015
     7  C    0.002237
     8  C    0.000011
     9  C    0.001295
    10  C   -0.035698
    11  C    0.381670
    12  C   -0.031684
    13  N    0.000103
    14  C   -0.003774
    15  H    0.000000
    16  H    0.000000
    17  H   -0.000003
    18  H   -0.000039
    19  H    0.661787
 Mulliken charges:
               1
     1  N   -0.240155
     2  C    0.047690
     3  C   -0.032367
     4  C   -0.083620
     5  C   -0.112015
     6  C   -0.072434
     7  C   -0.044624
     8  C   -0.017037
     9  C   -0.110988
    10  C   -0.032464
    11  C   -0.136800
    12  C   -0.215358
    13  N   -0.253721
    14  C    0.041388
    15  H    0.060967
    16  H    0.050947
    17  H    0.067497
    18  H    0.058985
    19  H    0.024108
 Sum of Mulliken charges =  -1.00000
 Mulliken charges with hydrogens summed into heavy atoms:
               1
     1  N   -0.240155
     2  C    0.047690
     3  C   -0.032367
     4  C   -0.022653
     5  C   -0.061068
     6  C   -0.004937
     7  C   -0.044624
     8  C   -0.017037
     9  C   -0.052002
    10  C   -0.032464
    11  C   -0.112692
    12  C   -0.215358
    13  N   -0.253721
    14  C    0.041388
 Electronic spatial extent (au):  <R**2>=           2787.2813
 Charge=             -1.0000 electrons
 Dipole moment (field-independent basis, Debye):
    X=              4.9776    Y=              0.2543    Z=              0.0003  Tot=              4.9841
 Quadrupole moment (field-independent basis, Debye-Ang):
   XX=           -105.9705   YY=           -105.8476   ZZ=            -74.1670
   XY=             -3.8823   XZ=             -0.0014   YZ=              0.0023
 Traceless Quadrupole moment (field-independent basis, Debye-Ang):
   XX=            -10.6421   YY=            -10.5192   ZZ=             21.1614
   XY=             -3.8823   XZ=             -0.0014   YZ=              0.0023
 Octapole moment (field-independent basis, Debye-Ang**2):
  XXX=            132.2478  YYY=            -14.6685  ZZZ=             -0.0018  XYY=             -5.6083
  XXY=            -36.6750  XXZ=              0.0098  XZZ=             -3.1116  YZZ=              4.6327
  YYZ=              0.0028  XYZ=             -0.0015
 Hexadecapole moment (field-independent basis, Debye-Ang**3):
 XXXX=          -2918.7340 YYYY=          -1584.1486 ZZZZ=            -58.3831 XXXY=            159.2992
 XXXZ=             -0.1120 YYYX=           -152.4243 YYYZ=              0.0757 ZZZX=             -0.0727
 ZZZY=              0.0532 XXYY=           -674.0078 XXZZ=           -396.0515 YYZZ=           -211.8755
 XXYZ=              0.0317 YYXZ=             -0.0144 ZZXY=              1.2299
 N-N= 6.947013316838D+02 E-N=-2.711669822065D+03  KE= 5.547456491256D+02
 1\1\GINC-N054\FOpt\RB3LYP\STO-3G\C12H5N2(1-)\R2532\15-Jun-2021\0\\#N B
 3LYP/STO-3G OPT\\1Naph\\-1,1\N,1.0312250285,-0.2619899593,-0.014548755
 3\C,2.231492712,-0.2492780092,-0.014498274\C,3.6937777799,-0.219493639
 6,-0.0143006484\C,4.3441948948,1.0235234462,-0.014129479\C,5.764580531
 7,1.0872085967,-0.0139523134\C,6.511996342,-0.0903638117,-0.0139665496
 \C,5.9268406702,-1.4087440301,-0.0141564489\C,4.4604341262,-1.46253413
 32,-0.0142940844\C,3.8324986323,-2.7406530048,-0.0144030325\C,4.650647
 5513,-3.887853049,-0.0144494906\C,6.0895685386,-3.7748808275,-0.014409
 6991\C,6.8519305244,-2.569738533,-0.014209856\N,3.5556065677,-6.320187
 7928,-0.0146208976\C,4.0182663476,-5.2124310895,-0.0145355259\H,3.7499
 038682,1.9473098891,-0.0141399737\H,6.2579377231,2.0673868814,-0.01381
 53794\H,7.6112817488,-0.0368163444,-0.0138492897\H,2.7392167426,-2.822
 783078,-0.0144480487\H,6.6151296702,-4.7463615113,-0.0145222537\\Versi
 on=ES64L-G09RevD.01\State=1-A\HF=-562.5142325\RMSD=8.301e-09\RMSF=9.98
 9e-06\Dipole=-0.1504445,1.9551236,0.0001077\Quadrupole=-7.9694921,-7.7
 634581,15.7329502,2.8849208,-0.0016933,-0.001105\PG=C01 [X(C12H5N2)]\\
 @


 ERWIN WITH HIS PSI CAN DO
 CALCULATIONS QUITE A FEW.
 BUT ONE THING HAS NOT BEEN SEEN
 JUST WHAT DOES PSI REALLY MEAN.
 -- WALTER HUCKEL, TRANS. BY FELIX BLOCH
 Job cpu time:       0 days  0 hours  3 minutes 21.2 seconds.
 File lengths (MBytes):  RWF=      5 Int=      0 D2E=      0 Chk=      2 Scr=      1
 Normal termination of Gaussian 09 at Tue Jun 15 11:17:06 2021.
