 Entering Gaussian System, Link 0=/usr/local/apps//g09/g09
 Input=8.com
 Output=8.out
 Initial command:
 /usr/local/apps//g09/l1.exe "/tmp/bnp.472699.sequoia/Gau-14751.inp" -scrdir="/tmp/bnp.472699.sequoia/"
 Entering Link 1 = /usr/local/apps//g09/l1.exe PID=     14752.
  
 Copyright (c) 1988,1990,1992,1993,1995,1998,2003,2009,2013,
            Gaussian, Inc.  All Rights Reserved.
  
 This is part of the Gaussian(R) 09 program.  It is based on
 the Gaussian(R) 03 system (copyright 2003, Gaussian, Inc.),
 the Gaussian(R) 98 system (copyright 1998, Gaussian, Inc.),
 the Gaussian(R) 94 system (copyright 1995, Gaussian, Inc.),
 the Gaussian 92(TM) system (copyright 1992, Gaussian, Inc.),
 the Gaussian 90(TM) system (copyright 1990, Gaussian, Inc.),
 the Gaussian 88(TM) system (copyright 1988, Gaussian, Inc.),
 the Gaussian 86(TM) system (copyright 1986, Carnegie Mellon
 University), and the Gaussian 82(TM) system (copyright 1983,
 Carnegie Mellon University). Gaussian is a federally registered
 trademark of Gaussian, Inc.
  
 This software contains proprietary and confidential information,
 including trade secrets, belonging to Gaussian, Inc.
  
 This software is provided under written license and may be
 used, copied, transmitted, or stored only in accord with that
 written license.
  
 The following legend is applicable only to US Government
 contracts under FAR:
  
                    RESTRICTED RIGHTS LEGEND
  
 Use, reproduction and disclosure by the US Government is
 subject to restrictions as set forth in subparagraphs (a)
 and (c) of the Commercial Computer Software - Restricted
 Rights clause in FAR 52.227-19.
  
 Gaussian, Inc.
 340 Quinnipiac St., Bldg. 40, Wallingford CT 06492
  
  
 ---------------------------------------------------------------
 Warning -- This program may not be used in any manner that
 competes with the business of Gaussian, Inc. or will provide
 assistance to any competitor of Gaussian, Inc.  The licensee
 of this program is prohibited from giving any competitor of
 Gaussian, Inc. access to this program.  By using this program,
 the user acknowledges that Gaussian, Inc. is engaged in the
 business of creating and licensing software in the field of
 computational chemistry and represents and warrants to the
 licensee that it is not a competitor of Gaussian, Inc. and that
 it will not use this program in any manner prohibited above.
 ---------------------------------------------------------------
  

 Cite this work as:
 Gaussian 09, Revision D.01,
 M. J. Frisch, G. W. Trucks, H. B. Schlegel, G. E. Scuseria, 
 M. A. Robb, J. R. Cheeseman, G. Scalmani, V. Barone, B. Mennucci, 
 G. A. Petersson, H. Nakatsuji, M. Caricato, X. Li, H. P. Hratchian, 
 A. F. Izmaylov, J. Bloino, G. Zheng, J. L. Sonnenberg, M. Hada, 
 M. Ehara, K. Toyota, R. Fukuda, J. Hasegawa, M. Ishida, T. Nakajima, 
 Y. Honda, O. Kitao, H. Nakai, T. Vreven, J. A. Montgomery, Jr., 
 J. E. Peralta, F. Ogliaro, M. Bearpark, J. J. Heyd, E. Brothers, 
 K. N. Kudin, V. N. Staroverov, T. Keith, R. Kobayashi, J. Normand, 
 K. Raghavachari, A. Rendell, J. C. Burant, S. S. Iyengar, J. Tomasi, 
 M. Cossi, N. Rega, J. M. Millam, M. Klene, J. E. Knox, J. B. Cross, 
 V. Bakken, C. Adamo, J. Jaramillo, R. Gomperts, R. E. Stratmann, 
 O. Yazyev, A. J. Austin, R. Cammi, C. Pomelli, J. W. Ochterski, 
 R. L. Martin, K. Morokuma, V. G. Zakrzewski, G. A. Voth, 
 P. Salvador, J. J. Dannenberg, S. Dapprich, A. D. Daniels, 
 O. Farkas, J. B. Foresman, J. V. Ortiz, J. Cioslowski, 
 and D. J. Fox, Gaussian, Inc., Wallingford CT, 2013.
 
 ******************************************
 Gaussian 09:  ES64L-G09RevD.01 24-Apr-2013
                15-Jun-2021 
 ******************************************
 -------------------
 #N B3LYP/STO-3G OPT
 -------------------
 1/14=-1,18=20,19=15,26=3,38=1/1,3;
 2/9=110,12=2,17=6,18=5,40=1/2;
 3/6=3,11=2,16=1,25=1,30=1,71=1,74=-5/1,2,3;
 4//1;
 5/5=2,38=5/2;
 6/7=2,8=2,9=2,10=2,28=1/1;
 7//1,2,3,16;
 1/14=-1,18=20,19=15,26=3/3(2);
 2/9=110/2;
 99//99;
 2/9=110/2;
 3/6=3,11=2,16=1,25=1,30=1,71=1,74=-5/1,2,3;
 4/5=5,16=3,69=1/1;
 5/5=2,38=5/2;
 7//1,2,3,16;
 1/14=-1,18=20,19=15,26=3/3(-5);
 2/9=110/2;
 6/7=2,8=2,9=2,10=2,19=2,28=1/1;
 99/9=1/99;
 -----
 1Naph
 -----
 Symbolic Z-matrix:
 Charge = -1 Multiplicity = 1
 N                     1.17623   0.06518   0.06737 
 C                     2.33632   0.03619   0.0673 
 C                     3.7735    0.03895   0.06741 
 C                     4.4388    1.27455   0.06826 
 C                     5.83441   1.32354   0.06879 
 C                     6.56989   0.13416   0.06841 
 C                     5.92394  -1.1116    0.06787 
 C                     4.50954  -1.16558   0.06745 
 C                     3.89174  -2.42796   0.0668 
 C                     4.63535  -3.60594   0.0668 
 C                     6.02422  -3.54469   0.06728 
 C                     6.66469  -2.30499   0.06764 
 N                     7.0734    3.60285   0.07002 
 C                     6.51574   2.58537   0.0694 
 H                     3.86358   2.20149   0.06854 
 H                     7.65912   0.17928   0.06873 
 H                     4.12589  -4.56563   0.06674 
 H                     6.61143  -4.46009   0.0675 
 H                     7.75327  -2.2803    0.06801 
 

 GradGradGradGradGradGradGradGradGradGradGradGradGradGradGradGradGradGrad
 Berny optimization.
 Initialization pass.
                           ----------------------------
                           !    Initial Parameters    !
                           ! (Angstroms and Degrees)  !
 --------------------------                            --------------------------
 ! Name  Definition              Value          Derivative Info.                !
 --------------------------------------------------------------------------------
 ! R1    R(1,2)                  1.1605         estimate D2E/DX2                !
 ! R2    R(2,3)                  1.4372         estimate D2E/DX2                !
 ! R3    R(3,4)                  1.4033         estimate D2E/DX2                !
 ! R4    R(3,8)                  1.4116         estimate D2E/DX2                !
 ! R5    R(4,5)                  1.3965         estimate D2E/DX2                !
 ! R6    R(4,15)                 1.0909         estimate D2E/DX2                !
 ! R7    R(5,6)                  1.3984         estimate D2E/DX2                !
 ! R8    R(5,14)                 1.434          estimate D2E/DX2                !
 ! R9    R(6,7)                  1.4033         estimate D2E/DX2                !
 ! R10   R(6,16)                 1.0902         estimate D2E/DX2                !
 ! R11   R(7,8)                  1.4154         estimate D2E/DX2                !
 ! R12   R(7,12)                 1.4046         estimate D2E/DX2                !
 ! R13   R(8,9)                  1.4054         estimate D2E/DX2                !
 ! R14   R(9,10)                 1.3931         estimate D2E/DX2                !
 ! R15   R(10,11)                1.3902         estimate D2E/DX2                !
 ! R16   R(10,17)                1.0865         estimate D2E/DX2                !
 ! R17   R(11,12)                1.3954         estimate D2E/DX2                !
 ! R18   R(11,18)                1.0876         estimate D2E/DX2                !
 ! R19   R(12,19)                1.0889         estimate D2E/DX2                !
 ! R20   R(13,14)                1.1603         estimate D2E/DX2                !
 ! A1    A(2,3,4)              118.41           estimate D2E/DX2                !
 ! A2    A(2,3,8)              121.3174         estimate D2E/DX2                !
 ! A3    A(4,3,8)              120.2726         estimate D2E/DX2                !
 ! A4    A(3,4,5)              120.3104         estimate D2E/DX2                !
 ! A5    A(3,4,15)             119.8781         estimate D2E/DX2                !
 ! A6    A(5,4,15)             119.8116         estimate D2E/DX2                !
 ! A7    A(4,5,6)              119.7211         estimate D2E/DX2                !
 ! A8    A(4,5,14)             120.3774         estimate D2E/DX2                !
 ! A9    A(6,5,14)             119.9015         estimate D2E/DX2                !
 ! A10   A(5,6,7)              120.8609         estimate D2E/DX2                !
 ! A11   A(5,6,16)             119.3595         estimate D2E/DX2                !
 ! A12   A(7,6,16)             119.7796         estimate D2E/DX2                !
 ! A13   A(6,7,8)              119.5932         estimate D2E/DX2                !
 ! A14   A(6,7,12)             120.7641         estimate D2E/DX2                !
 ! A15   A(8,7,12)             119.6427         estimate D2E/DX2                !
 ! A16   A(3,8,7)              119.2418         estimate D2E/DX2                !
 ! A17   A(3,8,9)              122.4958         estimate D2E/DX2                !
 ! A18   A(7,8,9)              118.2624         estimate D2E/DX2                !
 ! A19   A(8,9,10)             121.6607         estimate D2E/DX2                !
 ! A20   A(9,10,11)            119.7374         estimate D2E/DX2                !
 ! A21   A(9,10,17)            119.7755         estimate D2E/DX2                !
 ! A22   A(11,10,17)           120.4871         estimate D2E/DX2                !
 ! A23   A(10,11,12)           119.8475         estimate D2E/DX2                !
 ! A24   A(10,11,18)           120.1542         estimate D2E/DX2                !
 ! A25   A(12,11,18)           119.9983         estimate D2E/DX2                !
 ! A26   A(7,12,11)            120.8493         estimate D2E/DX2                !
 ! A27   A(7,12,19)            120.529          estimate D2E/DX2                !
 ! A28   A(11,12,19)           118.6217         estimate D2E/DX2                !
 ! A29   L(1,2,3,17,-1)        181.5415         estimate D2E/DX2                !
 ! A30   L(5,14,13,16,-1)      179.6408         estimate D2E/DX2                !
 ! A31   L(1,2,3,17,-2)        180.0082         estimate D2E/DX2                !
 ! A32   L(5,14,13,16,-2)      180.0077         estimate D2E/DX2                !
 ! D1    D(2,3,4,5)            179.9813         estimate D2E/DX2                !
 ! D2    D(2,3,4,15)            -0.0168         estimate D2E/DX2                !
 ! D3    D(8,3,4,5)              0.0172         estimate D2E/DX2                !
 ! D4    D(8,3,4,15)          -179.9808         estimate D2E/DX2                !
 ! D5    D(2,3,8,7)           -179.9856         estimate D2E/DX2                !
 ! D6    D(2,3,8,9)              0.0283         estimate D2E/DX2                !
 ! D7    D(4,3,8,7)             -0.0226         estimate D2E/DX2                !
 ! D8    D(4,3,8,9)            179.9913         estimate D2E/DX2                !
 ! D9    D(3,4,5,6)              0.0029         estimate D2E/DX2                !
 ! D10   D(3,4,5,14)           179.988          estimate D2E/DX2                !
 ! D11   D(15,4,5,6)          -179.9991         estimate D2E/DX2                !
 ! D12   D(15,4,5,14)           -0.0139         estimate D2E/DX2                !
 ! D13   D(4,5,6,7)             -0.0175         estimate D2E/DX2                !
 ! D14   D(4,5,6,16)           179.9941         estimate D2E/DX2                !
 ! D15   D(14,5,6,7)           179.9972         estimate D2E/DX2                !
 ! D16   D(14,5,6,16)            0.0089         estimate D2E/DX2                !
 ! D17   D(5,6,7,8)              0.012          estimate D2E/DX2                !
 ! D18   D(5,6,7,12)          -179.9928         estimate D2E/DX2                !
 ! D19   D(16,6,7,8)          -179.9997         estimate D2E/DX2                !
 ! D20   D(16,6,7,12)           -0.0046         estimate D2E/DX2                !
 ! D21   D(6,7,8,3)              0.008          estimate D2E/DX2                !
 ! D22   D(6,7,8,9)            179.9948         estimate D2E/DX2                !
 ! D23   D(12,7,8,3)          -179.9872         estimate D2E/DX2                !
 ! D24   D(12,7,8,9)            -0.0005         estimate D2E/DX2                !
 ! D25   D(6,7,12,11)          179.9915         estimate D2E/DX2                !
 ! D26   D(6,7,12,19)            0.0081         estimate D2E/DX2                !
 ! D27   D(8,7,12,11)           -0.0133         estimate D2E/DX2                !
 ! D28   D(8,7,12,19)         -179.9968         estimate D2E/DX2                !
 ! D29   D(3,8,9,10)           179.9975         estimate D2E/DX2                !
 ! D30   D(7,8,9,10)             0.0113         estimate D2E/DX2                !
 ! D31   D(8,9,10,11)           -0.0083         estimate D2E/DX2                !
 ! D32   D(8,9,10,17)          179.9725         estimate D2E/DX2                !
 ! D33   D(9,10,11,12)          -0.0056         estimate D2E/DX2                !
 ! D34   D(9,10,11,18)         179.9868         estimate D2E/DX2                !
 ! D35   D(17,10,11,12)       -179.9863         estimate D2E/DX2                !
 ! D36   D(17,10,11,18)          0.0061         estimate D2E/DX2                !
 ! D37   D(10,11,12,7)           0.0164         estimate D2E/DX2                !
 ! D38   D(10,11,12,19)       -179.9998         estimate D2E/DX2                !
 ! D39   D(18,11,12,7)        -179.976          estimate D2E/DX2                !
 ! D40   D(18,11,12,19)          0.0078         estimate D2E/DX2                !
 --------------------------------------------------------------------------------
 Trust Radius=3.00D-01 FncErr=1.00D-07 GrdErr=1.00D-06
 Number of steps in this run=    102 maximum allowed number of steps=    114.
 GradGradGradGradGradGradGradGradGradGradGradGradGradGradGradGradGradGrad

                          Input orientation:                          
 ---------------------------------------------------------------------
 Center     Atomic      Atomic             Coordinates (Angstroms)
 Number     Number       Type             X           Y           Z
 ---------------------------------------------------------------------
      1          7           0        1.176230    0.065180    0.067370
      2          6           0        2.336320    0.036190    0.067300
      3          6           0        3.773500    0.038950    0.067410
      4          6           0        4.438800    1.274550    0.068260
      5          6           0        5.834410    1.323540    0.068790
      6          6           0        6.569890    0.134160    0.068410
      7          6           0        5.923940   -1.111600    0.067870
      8          6           0        4.509540   -1.165580    0.067450
      9          6           0        3.891740   -2.427960    0.066800
     10          6           0        4.635350   -3.605940    0.066800
     11          6           0        6.024220   -3.544690    0.067280
     12          6           0        6.664690   -2.304990    0.067640
     13          7           0        7.073400    3.602850    0.070020
     14          6           0        6.515740    2.585370    0.069400
     15          1           0        3.863580    2.201490    0.068540
     16          1           0        7.659120    0.179280    0.068730
     17          1           0        4.125890   -4.565630    0.066740
     18          1           0        6.611430   -4.460090    0.067500
     19          1           0        7.753270   -2.280300    0.068010
 ---------------------------------------------------------------------
                    Distance matrix (angstroms):
                    1          2          3          4          5
     1  N    0.000000
     2  C    1.160452   0.000000
     3  C    2.597402   1.437183   0.000000
     4  C    3.479503   2.440073   1.403329   0.000000
     5  C    4.825154   3.727453   2.428482   1.396470   0.000000
     6  C    5.394101   4.234704   2.798011   2.417030   1.398412
     7  C    4.891376   3.766755   2.438885   2.810579   2.436785
     8  C    3.553270   2.483372   1.411612   2.441155   2.819752
     9  C    3.686427   2.913995   2.469742   3.742707   4.224657
    10  C    5.044069   4.307047   3.745398   4.884446   5.073216
    11  C    6.044350   5.140361   4.231810   5.073326   4.871929
    12  C    5.978369   4.920966   3.721966   4.215174   3.722311
    13  N    6.876898   5.929671   4.857029   3.515978   2.594292
    14  C    5.904382   4.895495   3.742210   2.455999   1.434024
    15  H    3.433027   2.649726   2.164416   1.090915   2.157537
    16  H    6.483894   5.324723   3.888153   3.401482   2.153810
    17  H    5.490437   4.937541   4.618045   5.848557   6.131995
    18  H    7.072444   6.204281   5.319324   6.132407   5.835592
    19  H    6.982745   5.891475   4.606245   4.860316   4.082853
                    6          7          8          9         10
     6  C    0.000000
     7  C    1.403271   0.000000
     8  C    2.436056   1.415430   0.000000
     9  C    3.706339   2.421289   1.405447   0.000000
    10  C    4.210795   2.807525   2.443601   1.393052   0.000000
    11  C    3.719099   2.435156   2.820358   2.407189   1.390220
    12  C    2.440992   1.404596   2.437812   2.775675   2.410538
    13  N    3.505044   4.852556   5.413992   6.818624   7.609911
    14  C    2.451808   3.744037   4.253759   5.658521   6.470564
    15  H    3.405579   3.901493   3.428473   4.629536   5.858487
    16  H    1.090164   2.162688   3.424690   4.581578   4.844696
    17  H    5.297279   3.894009   3.421626   2.150456   1.086533
    18  H    4.594438   3.418337   3.907907   3.395036   2.152781
    19  H    2.688867   2.170785   3.429925   3.864352   3.388030
                   11         12         13         14         15
    11  C    0.000000
    12  C    1.395370   0.000000
    13  N    7.224134   5.921961   0.000000
    14  C    6.149734   4.892628   1.160280   0.000000
    15  H    6.138970   5.306089   3.502393   2.679798   0.000000
    16  H    4.067045   2.675909   3.473313   2.663942   4.300635
    17  H    2.155453   3.399412   8.684002   7.539774   6.772202
    18  H    1.087554   2.155758   8.076164   7.046110   7.206062
    19  H    2.142031   1.088860   5.922304   5.020580   5.934318
                   16         17         18         19
    16  H    0.000000
    17  H    5.915901   0.000000
    18  H    4.756197   2.487780   0.000000
    19  H    2.461381   4.287263   2.460749   0.000000
 Stoichiometry    C12H5N2(1-)
 Framework group  C1[X(C12H5N2)]
 Deg. of freedom    51
 Full point group                 C1      NOp   1
 Largest Abelian subgroup         C1      NOp   1
 Largest concise Abelian subgroup C1      NOp   1
                         Standard orientation:                         
 ---------------------------------------------------------------------
 Center     Atomic      Atomic             Coordinates (Angstroms)
 Number     Number       Type             X           Y           Z
 ---------------------------------------------------------------------
      1          7           0       -0.518775    3.810305    0.000283
      2          6           0       -0.254176    2.680421   -0.000081
      3          6           0        0.111046    1.290419   -0.000349
      4          6           0        1.474517    0.958336   -0.000096
      5          6           0        1.873987   -0.379779    0.000052
      6          6           0        0.908611   -1.391512   -0.000115
      7          6           0       -0.459810   -1.080716   -0.000059
      8          6           0       -0.868849    0.274322   -0.000090
      9          6           0       -2.246251    0.553686   -0.000147
     10          6           0       -3.198545   -0.463039    0.000061
     11          6           0       -2.788912   -1.791538    0.000156
     12          6           0       -1.427737   -2.098560   -0.000076
     13          7           0        4.392135   -1.003706    0.000178
     14          6           0        3.266884   -0.720757    0.000052
     15          1           0        2.226370    1.748787    0.000018
     16          1           0        1.227047   -2.434132   -0.000096
     17          1           0       -4.255716   -0.212153    0.000463
     18          1           0       -3.526573   -2.590681    0.000535
     19          1           0       -1.129234   -3.145705    0.000000
 ---------------------------------------------------------------------
 Rotational constants (GHZ):      1.0041235      0.6068363      0.3782457
 Standard basis: STO-3G (5D, 7F)
 There are    75 symmetry adapted cartesian basis functions of A   symmetry.
 There are    75 symmetry adapted basis functions of A   symmetry.
    75 basis functions,   225 primitive gaussians,    75 cartesian basis functions
    46 alpha electrons       46 beta electrons
       nuclear repulsion energy       707.9838859092 Hartrees.
 NAtoms=   19 NActive=   19 NUniq=   19 SFac= 1.00D+00 NAtFMM=   60 NAOKFM=F Big=F
 Integral buffers will be    131072 words long.
 Raffenetti 2 integral format.
 Two-electron integral symmetry is turned on.
 One-electron integrals computed using PRISM.
 NBasis=    75 RedAO= T EigKep=  1.55D-01  NBF=    75
 NBsUse=    75 1.00D-06 EigRej= -1.00D+00 NBFU=    75
 ExpMin= 1.69D-01 ExpMax= 9.91D+01 ExpMxC= 9.91D+01 IAcc=1 IRadAn=         1 AccDes= 0.00D+00
 Harris functional with IExCor=  402 and IRadAn=       1 diagonalized for initial guess.
 HarFok:  IExCor=  402 AccDes= 0.00D+00 IRadAn=         1 IDoV= 1 UseB2=F ITyADJ=14
 ICtDFT=  3500011 ScaDFX=  1.000000  1.000000  1.000000  1.000000
 FoFCou: FMM=F IPFlag=           0 FMFlag=      100000 FMFlg1=           0
         NFxFlg=           0 DoJE=T BraDBF=F KetDBF=T FulRan=T
         wScrn=  0.000000 ICntrl=     500 IOpCl=  0 I1Cent=   200000004 NGrid=           0
         NMat0=    1 NMatS0=      1 NMatT0=    0 NMatD0=    1 NMtDS0=    0 NMtDT0=    0
 Petite list used in FoFCou.
 Keep R1 ints in memory in canonical form, NReq=4993994.
 Requested convergence on RMS density matrix=1.00D-08 within 128 cycles.
 Requested convergence on MAX density matrix=1.00D-06.
 Requested convergence on             energy=1.00D-06.
 No special actions if energy rises.
 Integral accuracy reduced to 1.0D-05 until final iterations.
 EnCoef did     6 forward-backward iterations
 EnCoef did     4 forward-backward iterations
 EnCoef did     2 forward-backward iterations
 Rare condition: small coef for last iteration:  0.000D+00
 EnCoef did   100 forward-backward iterations
 Rare condition: small coef for last iteration:  0.000D+00
 EnCoef did   100 forward-backward iterations
 Rare condition: small coef for last iteration:  0.000D+00
 Problem detected with inexpensive integrals.
 Switching to full accuracy and repeating last cycle.
 SCF Done:  E(RB3LYP) =  -562.472417699     A.U. after   29 cycles
            NFock= 29  Conv=0.48D-08     -V/T= 2.0129

 **********************************************************************

            Population analysis using the SCF density.

 **********************************************************************

 Orbital symmetries:
       Occupied  (A) (A) (A) (A) (A) (A) (A) (A) (A) (A) (A) (A)
                 (A) (A) (A) (A) (A) (A) (A) (A) (A) (A) (A) (A)
                 (A) (A) (A) (A) (A) (A) (A) (A) (A) (A) (A) (A)
                 (A) (A) (A) (A) (A) (A) (A) (A) (A) (A)
       Virtual   (A) (A) (A) (A) (A) (A) (A) (A) (A) (A) (A) (A)
                 (A) (A) (A) (A) (A) (A) (A) (A) (A) (A) (A) (A)
                 (A) (A) (A) (A) (A)
 The electronic state is 1-A.
 Alpha  occ. eigenvalues --  -13.99364 -13.97072  -9.90279  -9.90086  -9.88928
 Alpha  occ. eigenvalues --   -9.88073  -9.87799  -9.86704  -9.85850  -9.83664
 Alpha  occ. eigenvalues --   -9.83640  -9.82617  -9.79766  -9.66804  -0.74664
 Alpha  occ. eigenvalues --   -0.72284  -0.68263  -0.62424  -0.59014  -0.55415
 Alpha  occ. eigenvalues --   -0.50326  -0.45747  -0.43773  -0.40171  -0.34291
 Alpha  occ. eigenvalues --   -0.31962  -0.30804  -0.28983  -0.25339  -0.22627
 Alpha  occ. eigenvalues --   -0.21958  -0.21295  -0.19164  -0.18028  -0.17174
 Alpha  occ. eigenvalues --   -0.15466  -0.15256  -0.15129  -0.13178  -0.12846
 Alpha  occ. eigenvalues --   -0.11198  -0.10901  -0.06370  -0.03972   0.02294
 Alpha  occ. eigenvalues --    0.13738
 Alpha virt. eigenvalues --    0.17057   0.20616   0.27002   0.27821   0.29773
 Alpha virt. eigenvalues --    0.30692   0.36115   0.39225   0.44689   0.48930
 Alpha virt. eigenvalues --    0.49014   0.53401   0.56504   0.56667   0.60307
 Alpha virt. eigenvalues --    0.62929   0.64357   0.65623   0.71200   0.73042
 Alpha virt. eigenvalues --    0.74723   0.78809   0.82933   0.86740   0.87599
 Alpha virt. eigenvalues --    0.99048   1.00077   1.14167   1.16334
          Condensed to atoms (all electrons):
               1          2          3          4          5          6
     1  N    6.579998   0.686108  -0.010869  -0.000252  -0.000001   0.000000
     2  C    0.686108   4.876518   0.426580  -0.033364   0.001010   0.000017
     3  C   -0.010869   0.426580   4.773660   0.504629  -0.029739  -0.010309
     4  C   -0.000252  -0.033364   0.504629   4.835130   0.486645  -0.031709
     5  C   -0.000001   0.001010  -0.029739   0.486645   4.758536   0.498525
     6  C    0.000000   0.000017  -0.010309  -0.031709   0.498525   4.853291
     7  C   -0.000003   0.001063  -0.035110  -0.009613  -0.029214   0.479205
     8  C   -0.000031  -0.028769   0.462304  -0.029302  -0.009646  -0.027766
     9  C   -0.000326   0.000454  -0.037251   0.000888   0.000040   0.001156
    10  C    0.000001   0.000004   0.001203  -0.000013   0.000001   0.000052
    11  C    0.000000   0.000001  -0.000013   0.000001  -0.000010   0.000963
    12  C    0.000000  -0.000006   0.000945   0.000047   0.000939  -0.034189
    13  N    0.000000   0.000000  -0.000001  -0.000123  -0.011598  -0.000174
    14  C    0.000000  -0.000007   0.000973  -0.031219   0.430121  -0.031272
    15  H    0.000063  -0.003913  -0.024712   0.389569  -0.025814   0.001423
    16  H    0.000000   0.000001   0.000021   0.001449  -0.026959   0.387537
    17  H    0.000000  -0.000003  -0.000005   0.000000   0.000000   0.000002
    18  H    0.000000   0.000000   0.000002   0.000000   0.000000  -0.000017
    19  H    0.000000   0.000000  -0.000022  -0.000001   0.000024  -0.004393
               7          8          9         10         11         12
     1  N   -0.000003  -0.000031  -0.000326   0.000001   0.000000   0.000000
     2  C    0.001063  -0.028769   0.000454   0.000004   0.000001  -0.000006
     3  C   -0.035110   0.462304  -0.037251   0.001203  -0.000013   0.000945
     4  C   -0.009613  -0.029302   0.000888  -0.000013   0.000001   0.000047
     5  C   -0.029214  -0.009646   0.000040   0.000001  -0.000010   0.000939
     6  C    0.479205  -0.027766   0.001156   0.000052   0.000963  -0.034189
     7  C    4.795137   0.449964  -0.030963  -0.011956  -0.027746   0.489114
     8  C    0.449964   4.829053   0.460025  -0.027830  -0.011367  -0.032051
     9  C   -0.030963   0.460025   5.381002   0.493539  -0.029037  -0.013730
    10  C   -0.011956  -0.027830   0.493539   4.877032   0.481885  -0.033321
    11  C   -0.027746  -0.011367  -0.029037   0.481885   4.845946   0.517541
    12  C    0.489114  -0.032051  -0.013730  -0.033321   0.517541   4.866432
    13  N   -0.000001   0.000000   0.000000   0.000000   0.000000   0.000000
    14  C    0.000997   0.000015   0.000000   0.000000   0.000000  -0.000008
    15  H    0.000031   0.001332  -0.000021   0.000000   0.000000   0.000001
    16  H   -0.024999   0.001409  -0.000030  -0.000002   0.000024  -0.004193
    17  H   -0.000030   0.001892  -0.034271   0.387385  -0.032929   0.001446
    18  H    0.001451   0.000072   0.001691  -0.026097   0.382326  -0.027324
    19  H   -0.025990   0.001331   0.000045   0.001496  -0.027668   0.390052
              13         14         15         16         17         18
     1  N    0.000000   0.000000   0.000063   0.000000   0.000000   0.000000
     2  C    0.000000  -0.000007  -0.003913   0.000001  -0.000003   0.000000
     3  C   -0.000001   0.000973  -0.024712   0.000021  -0.000005   0.000002
     4  C   -0.000123  -0.031219   0.389569   0.001449   0.000000   0.000000
     5  C   -0.011598   0.430121  -0.025814  -0.026959   0.000000   0.000000
     6  C   -0.000174  -0.031272   0.001423   0.387537   0.000002  -0.000017
     7  C   -0.000001   0.000997   0.000031  -0.024999  -0.000030   0.001451
     8  C    0.000000   0.000015   0.001332   0.001409   0.001892   0.000072
     9  C    0.000000   0.000000  -0.000021  -0.000030  -0.034271   0.001691
    10  C    0.000000   0.000000   0.000000  -0.000002   0.387385  -0.026097
    11  C    0.000000   0.000000   0.000000   0.000024  -0.032929   0.382326
    12  C    0.000000  -0.000008   0.000001  -0.004193   0.001446  -0.027324
    13  N    6.580051   0.686939   0.000065   0.000059   0.000000   0.000000
    14  C    0.686939   4.893734  -0.003826  -0.003844   0.000000   0.000000
    15  H    0.000065  -0.003826   0.598330  -0.000040   0.000000   0.000000
    16  H    0.000059  -0.003844  -0.000040   0.609346   0.000000  -0.000003
    17  H    0.000000   0.000000   0.000000   0.000000   0.652500  -0.003097
    18  H    0.000000   0.000000   0.000000  -0.000003  -0.003097   0.638187
    19  H    0.000000  -0.000001   0.000000   0.000987  -0.000043  -0.004086
              19
     1  N    0.000000
     2  C    0.000000
     3  C   -0.000022
     4  C   -0.000001
     5  C    0.000024
     6  C   -0.004393
     7  C   -0.025990
     8  C    0.001331
     9  C    0.000045
    10  C    0.001496
    11  C   -0.027668
    12  C    0.390052
    13  N    0.000000
    14  C   -0.000001
    15  H    0.000000
    16  H    0.000987
    17  H   -0.000043
    18  H   -0.004086
    19  H    0.630456
 Mulliken charges:
               1
     1  N   -0.254688
     2  C    0.074308
     3  C   -0.022285
     4  C   -0.082760
     5  C   -0.042861
     6  C   -0.082341
     7  C   -0.021336
     8  C   -0.040635
     9  C   -0.193211
    10  C   -0.143378
    11  C   -0.099916
    12  C   -0.121694
    13  N   -0.255216
    14  C    0.057399
    15  H    0.067512
    16  H    0.059239
    17  H    0.027154
    18  H    0.036896
    19  H    0.037814
 Sum of Mulliken charges =  -1.00000
 Mulliken charges with hydrogens summed into heavy atoms:
               1
     1  N   -0.254688
     2  C    0.074308
     3  C   -0.022285
     4  C   -0.015248
     5  C   -0.042861
     6  C   -0.023101
     7  C   -0.021336
     8  C   -0.040635
     9  C   -0.193211
    10  C   -0.116224
    11  C   -0.063021
    12  C   -0.083880
    13  N   -0.255216
    14  C    0.057399
 Electronic spatial extent (au):  <R**2>=           2711.8125
 Charge=             -1.0000 electrons
 Dipole moment (field-independent basis, Debye):
    X=              1.3536    Y=             -3.3680    Z=             -0.2237  Tot=              3.6367
 Quadrupole moment (field-independent basis, Debye-Ang):
   XX=           -114.1208   YY=            -97.4588   ZZ=            -74.0481
   XY=             11.0243   XZ=              0.3776   YZ=             -0.2172
 Traceless Quadrupole moment (field-independent basis, Debye-Ang):
   XX=            -18.9116   YY=             -2.2496   ZZ=             21.1611
   XY=             11.0243   XZ=              0.3776   YZ=             -0.2172
 Octapole moment (field-independent basis, Debye-Ang**2):
  XXX=            -83.8034  YYY=            -85.4583  ZZZ=             -0.1312  XYY=             21.5918
  XXY=             27.6971  XXZ=             -0.9922  XZZ=              4.3441  YZZ=              3.5282
  YYZ=             -0.3316  XYZ=              0.5662
 Hexadecapole moment (field-independent basis, Debye-Ang**3):
 XXXX=          -2835.5087 YYYY=          -1661.6155 ZZZZ=            -58.2366 XXXY=            161.7608
 XXXZ=              2.9011 YYYX=             55.1118 YYYZ=             -0.3318 ZZZX=              0.2497
 ZZZY=             -0.1239 XXYY=           -615.0584 XXZZ=           -364.6898 YYZZ=           -225.9236
 XXYZ=             -1.5002 YYXZ=              0.4201 ZZXY=             -7.1848
 N-N= 7.079838859092D+02 E-N=-2.738237258626D+03  KE= 5.552999911282D+02
 Calling FoFJK, ICntrl=      2127 FMM=F ISym2X=0 I1Cent= 0 IOpClX= 0 NMat=1 NMatS=1 NMatT=0.
 ***** Axes restored to original set *****
 -------------------------------------------------------------------
 Center     Atomic                   Forces (Hartrees/Bohr)
 Number     Number              X              Y              Z
 -------------------------------------------------------------------
      1        7          -0.106263254    0.004275786    0.001617952
      2        6           0.086478140   -0.008488281   -0.003771846
      3        6           0.000170397    0.038118582   -0.000607956
      4        6          -0.030790003    0.002819290   -0.001425609
      5        6           0.015265030   -0.002047833    0.001696671
      6        6           0.019117927    0.011710698    0.001639172
      7        6           0.025556387    0.014178865    0.012655485
      8        6           0.006762451   -0.044970611   -0.005082371
      9        6          -0.072081734   -0.017873596    0.008817681
     10        6          -0.010440655    0.024975827   -0.010462837
     11        6           0.022672317   -0.000934407   -0.009365997
     12        6           0.015087643   -0.030012892    0.001528341
     13        7           0.050327441    0.091961300   -0.000009272
     14        6          -0.040780616   -0.072496057   -0.000048479
     15        1          -0.002476720    0.004637347   -0.000560582
     16        1           0.006811752    0.001191091   -0.005171060
     17        1          -0.002109423   -0.013967040    0.004991129
     18        1           0.010601437   -0.007696622    0.002340817
     19        1           0.006091482    0.004618553    0.001218758
 -------------------------------------------------------------------
 Cartesian Forces:  Max     0.106263254 RMS     0.030141104

 GradGradGradGradGradGradGradGradGradGradGradGradGradGradGradGradGradGrad
 Berny optimization.
 FormGI is forming the generalized inverse of G from B-inverse, IUseBI=4.
 Internal  Forces:  Max     0.106338442 RMS     0.020630206
 Search for a local minimum.
 Step number   1 out of a maximum of  102
 All quantities printed in internal units (Hartrees-Bohrs-Radians)
 Mixed Optimization -- RFO/linear search
 Second derivative matrix not updated -- first step.
 ITU=  0
     Eigenvalues ---    0.01597   0.01597   0.01951   0.01955   0.01987
     Eigenvalues ---    0.01996   0.02035   0.02075   0.02086   0.02088
     Eigenvalues ---    0.02091   0.02104   0.02123   0.02178   0.02181
     Eigenvalues ---    0.02206   0.04863   0.04863   0.16000   0.16000
     Eigenvalues ---    0.16000   0.16000   0.16000   0.22084   0.23229
     Eigenvalues ---    0.23490   0.23687   0.24905   0.25000   0.25000
     Eigenvalues ---    0.25000   0.34707   0.34794   0.34945   0.35097
     Eigenvalues ---    0.35216   0.38425   0.39974   0.40416   0.40990
     Eigenvalues ---    0.42014   0.43292   0.44295   0.45067   0.45082
     Eigenvalues ---    0.45743   0.45911   0.46014   0.46915   1.27498
     Eigenvalues ---    1.27610
 RFO step:  Lambda=-5.79499946D-02 EMin= 1.59690050D-02
 Linear search not attempted -- first point.
 Maximum step size (   0.300) exceeded in Quadratic search.
    -- Step size scaled by   0.896
 Iteration  1 RMS(Cart)=  0.04983048 RMS(Int)=  0.00119252
 Iteration  2 RMS(Cart)=  0.00190109 RMS(Int)=  0.00048768
 Iteration  3 RMS(Cart)=  0.00000153 RMS(Int)=  0.00048768
 Iteration  4 RMS(Cart)=  0.00000000 RMS(Int)=  0.00048768
 Variable       Old X    -DE/DX   Delta X   Delta X   Delta X     New X
                                 (Linear)    (Quad)   (Total)
    R1        2.19294   0.10634   0.00000   0.07151   0.07151   2.26445
    R2        2.71588   0.01980   0.00000   0.03877   0.03877   2.75465
    R3        2.65191   0.00871   0.00000   0.01435   0.01432   2.66623
    R4        2.66756   0.04499   0.00000   0.08230   0.08241   2.74997
    R5        2.63895   0.03593   0.00000   0.06011   0.05996   2.69890
    R6        2.06153   0.00525   0.00000   0.01161   0.01161   2.07314
    R7        2.64262   0.01981   0.00000   0.03349   0.03337   2.67599
    R8        2.70991   0.02166   0.00000   0.04202   0.04202   2.75193
    R9        2.65180   0.03284   0.00000   0.05882   0.05885   2.71065
   R10        2.06011   0.00685   0.00000   0.01513   0.01513   2.07524
   R11        2.67477   0.05152   0.00000   0.09835   0.09836   2.77314
   R12        2.65430   0.02472   0.00000   0.04436   0.04406   2.69836
   R13        2.65591   0.03421   0.00000   0.06201   0.06218   2.71809
   R14        2.63249   0.01715   0.00000   0.02861   0.02890   2.66139
   R15        2.62714   0.04353   0.00000   0.07160   0.07173   2.69887
   R16        2.05325   0.01332   0.00000   0.02912   0.02912   2.08237
   R17        2.63687   0.00251   0.00000   0.00300   0.00284   2.63971
   R18        2.05518   0.01220   0.00000   0.02675   0.02675   2.08193
   R19        2.05765   0.00620   0.00000   0.01364   0.01364   2.07128
   R20        2.19261   0.10483   0.00000   0.07044   0.07044   2.26305
    A1        2.06664  -0.00003   0.00000  -0.00037  -0.00043   2.06622
    A2        2.11739  -0.00787   0.00000  -0.02320  -0.02326   2.09413
    A3        2.09915   0.00790   0.00000   0.02358   0.02366   2.12282
    A4        2.09981   0.00253   0.00000   0.00368   0.00350   2.10331
    A5        2.09227  -0.00092   0.00000  -0.00043  -0.00034   2.09193
    A6        2.09111  -0.00161   0.00000  -0.00326  -0.00317   2.08793
    A7        2.08953   0.00236   0.00000   0.00298   0.00265   2.09218
    A8        2.10098  -0.00243   0.00000  -0.00514  -0.00505   2.09593
    A9        2.09268   0.00008   0.00000   0.00216   0.00225   2.09493
   A10        2.10942  -0.00057   0.00000  -0.00083  -0.00104   2.10838
   A11        2.08322  -0.00065   0.00000  -0.00344  -0.00354   2.07967
   A12        2.09055   0.00122   0.00000   0.00428   0.00419   2.09474
   A13        2.08730   0.00262   0.00000   0.01106   0.01134   2.09864
   A14        2.10773   0.00537   0.00000   0.01067   0.01055   2.11828
   A15        2.08816  -0.00799   0.00000  -0.02173  -0.02256   2.06560
   A16        2.08116  -0.01483   0.00000  -0.04048  -0.04016   2.04100
   A17        2.13795  -0.01033   0.00000  -0.03556  -0.03568   2.10227
   A18        2.06407   0.02516   0.00000   0.07604   0.07584   2.13991
   A19        2.12338  -0.03992   0.00000  -0.11474  -0.11394   2.00944
   A20        2.08981   0.02304   0.00000   0.06920   0.06927   2.15908
   A21        2.09048  -0.00670   0.00000  -0.01478  -0.01536   2.07511
   A22        2.10290  -0.01634   0.00000  -0.05443  -0.05492   2.04797
   A23        2.09173   0.00622   0.00000   0.01367   0.01337   2.10510
   A24        2.09709   0.00180   0.00000   0.01335   0.01312   2.11021
   A25        2.09437  -0.00802   0.00000  -0.02702  -0.02718   2.06718
   A26        2.10922  -0.00650   0.00000  -0.02242  -0.02302   2.08620
   A27        2.10363  -0.00136   0.00000  -0.00777  -0.00749   2.09614
   A28        2.07034   0.00786   0.00000   0.03019   0.03045   2.10079
   A29        3.16850   0.00353   0.00000   0.04286   0.04286   3.21135
   A30        3.13532   0.00016   0.00000   0.00138   0.00138   3.13671
   A31        3.14174   0.00326   0.00000   0.03954   0.03954   3.18127
   A32        3.14173  -0.00012   0.00000  -0.00098  -0.00098   3.14075
    D1        3.14127   0.00069   0.00000   0.00796   0.00767  -3.13425
    D2       -0.00029   0.00011   0.00000   0.00132   0.00119   0.00090
    D3        0.00030  -0.00001   0.00000  -0.00004  -0.00009   0.00021
    D4       -3.14126  -0.00059   0.00000  -0.00668  -0.00657   3.13536
    D5       -3.14134  -0.00073   0.00000  -0.00846  -0.00829   3.13355
    D6        0.00049  -0.00048   0.00000  -0.00539  -0.00596  -0.00547
    D7       -0.00039  -0.00001   0.00000  -0.00021  -0.00040  -0.00080
    D8        3.14144   0.00024   0.00000   0.00286   0.00193  -3.13982
    D9        0.00005   0.00048   0.00000   0.00541   0.00561   0.00566
   D10        3.14138  -0.00110   0.00000  -0.01260  -0.01250   3.12888
   D11       -3.14158   0.00105   0.00000   0.01204   0.01207  -3.12950
   D12       -0.00024  -0.00053   0.00000  -0.00597  -0.00603  -0.00628
   D13       -0.00031  -0.00093   0.00000  -0.01061  -0.01066  -0.01097
   D14        3.14149  -0.00357   0.00000  -0.04076  -0.04103   3.10046
   D15        3.14154   0.00064   0.00000   0.00731   0.00744  -3.13420
   D16        0.00016  -0.00200   0.00000  -0.02284  -0.02293  -0.02278
   D17        0.00021   0.00090   0.00000   0.01034   0.01018   0.01039
   D18       -3.14147  -0.00251   0.00000  -0.02897  -0.02991   3.11181
   D19       -3.14159   0.00356   0.00000   0.04060   0.04081  -3.10077
   D20       -0.00008   0.00014   0.00000   0.00130   0.00073   0.00065
   D21        0.00014  -0.00043   0.00000  -0.00486  -0.00455  -0.00441
   D22        3.14150  -0.00068   0.00000  -0.00782  -0.00695   3.13455
   D23       -3.14137   0.00295   0.00000   0.03400   0.03434  -3.10703
   D24       -0.00001   0.00270   0.00000   0.03104   0.03194   0.03193
   D25        3.14145   0.00401   0.00000   0.04581   0.04710  -3.09464
   D26        0.00014   0.00305   0.00000   0.03500   0.03542   0.03556
   D27       -0.00023   0.00060   0.00000   0.00649   0.00775   0.00752
   D28       -3.14154  -0.00036   0.00000  -0.00433  -0.00393   3.13772
   D29        3.14155  -0.00454   0.00000  -0.05189  -0.05063   3.09092
   D30        0.00020  -0.00428   0.00000  -0.04883  -0.04815  -0.04795
   D31       -0.00015   0.00248   0.00000   0.02828   0.02768   0.02754
   D32        3.14111  -0.00184   0.00000  -0.02025  -0.02186   3.11925
   D33       -0.00010   0.00094   0.00000   0.01069   0.00978   0.00968
   D34        3.14136  -0.00266   0.00000  -0.02989  -0.03056   3.11080
   D35       -3.14135   0.00529   0.00000   0.05955   0.05860  -3.08275
   D36        0.00011   0.00169   0.00000   0.01898   0.01826   0.01837
   D37        0.00029  -0.00246   0.00000  -0.02786  -0.02798  -0.02769
   D38       -3.14159  -0.00152   0.00000  -0.01725  -0.01627   3.12532
   D39       -3.14117   0.00113   0.00000   0.01265   0.01138  -3.12979
   D40        0.00014   0.00207   0.00000   0.02325   0.02309   0.02322
         Item               Value     Threshold  Converged?
 Maximum Force            0.106338     0.000450     NO 
 RMS     Force            0.020630     0.000300     NO 
 Maximum Displacement     0.193775     0.001800     NO 
 RMS     Displacement     0.049385     0.001200     NO 
 Predicted change in Energy=-3.195959D-02
 GradGradGradGradGradGradGradGradGradGradGradGradGradGradGradGradGradGrad

                          Input orientation:                          
 ---------------------------------------------------------------------
 Center     Atomic      Atomic             Coordinates (Angstroms)
 Number     Number       Type             X           Y           Z
 ---------------------------------------------------------------------
      1          7           0        1.107054    0.113974    0.071471
      2          6           0        2.302573    0.035881    0.048192
      3          6           0        3.760054    0.042770    0.072463
      4          6           0        4.425093    1.287102    0.068066
      5          6           0        5.851977    1.346706    0.082129
      6          6           0        6.607848    0.149297    0.093695
      7          6           0        5.958033   -1.129436    0.104993
      8          6           0        4.493063   -1.214212    0.091542
      9          6           0        3.789199   -2.468572    0.093422
     10          6           0        4.607658   -3.613781    0.048013
     11          6           0        6.035042   -3.567807    0.035474
     12          6           0        6.707782   -2.344427    0.080408
     13          7           0        7.091042    3.693173    0.043559
     14          6           0        6.529073    2.635816    0.061438
     15          1           0        3.843566    2.217128    0.047608
     16          1           0        7.704059    0.208282    0.065015
     17          1           0        4.133494   -4.608282    0.068367
     18          1           0        6.631015   -4.494378    0.028506
     19          1           0        7.803435   -2.314455    0.085957
 ---------------------------------------------------------------------
                    Distance matrix (angstroms):
                    1          2          3          4          5
     1  N    0.000000
     2  C    1.198293   0.000000
     3  C    2.653955   1.457699   0.000000
     4  C    3.519322   2.463948   1.410907   0.000000
     5  C    4.902452   3.783871   2.465052   1.428197   0.000000
     6  C    5.500952   4.307008   2.849864   2.461641   1.416073
     7  C    5.007913   3.837131   2.491232   2.861979   2.478518
     8  C    3.637243   2.522470   1.455222   2.502348   2.899144
     9  C    3.723429   2.912796   2.511599   3.809212   4.337226
    10  C    5.113799   4.316648   3.753585   4.904323   5.114286
    11  C    6.151575   5.188261   4.267694   5.114992   4.918143
    12  C    6.116533   5.007272   3.793136   4.289386   3.789046
    13  N    6.972773   6.025383   4.941838   3.591248   2.653805
    14  C    5.979805   4.962170   3.793609   2.499160   1.456259
    15  H    3.451423   2.670674   2.176103   1.097060   2.189187
    16  H    6.597682   5.404262   3.947483   3.451881   2.174054
    17  H    5.608837   4.992086   4.666022   5.902591   6.198004
    18  H    7.193949   6.265703   5.369364   6.188148   5.893050
    19  H    7.123131   5.982055   4.680345   4.938090   4.148771
                    6          7          8          9         10
     6  C    0.000000
     7  C    1.434415   0.000000
     8  C    2.516242   1.467482   0.000000
     9  C    3.846820   2.548972   1.438349   0.000000
    10  C    4.261877   2.828202   2.402698   1.408347   0.000000
    11  C    3.761431   2.440577   2.814294   2.501098   1.428179
    12  C    2.495762   1.427912   2.486462   2.921252   2.454145
    13  N    3.577017   4.954296   5.552858   6.990834   7.717435
    14  C    2.487975   3.808557   4.355336   5.793333   6.538308
    15  H    3.452434   3.959010   3.492545   4.686239   5.880760
    16  H    1.098172   2.199931   3.512077   4.742624   4.918958
    17  H    5.362614   3.928441   3.413142   2.167378   1.101943
    18  H    4.644191   3.432432   3.915904   3.490562   2.206763
    19  H    2.738533   2.193203   3.488428   4.017201   3.450025
                   11         12         13         14         15
    11  C    0.000000
    12  C    1.396874   0.000000
    13  N    7.337373   6.049865   0.000000
    14  C    6.223317   4.983484   1.197554   0.000000
    15  H    6.186129   5.386335   3.567188   2.717984   0.000000
    16  H    4.128600   2.740279   3.538463   2.696947   4.351916
    17  H    2.167846   3.428140   8.812597   7.629928   6.831596
    18  H    1.101711   2.151947   8.200479   7.130998   7.267362
    19  H    2.168099   1.096077   6.049868   5.111730   6.018080
                   16         17         18         19
    16  H    0.000000
    17  H    5.995685   0.000000
    18  H    4.823668   2.500435   0.000000
    19  H    2.524781   4.327865   2.475870   0.000000
 Stoichiometry    C12H5N2(1-)
 Framework group  C1[X(C12H5N2)]
 Deg. of freedom    51
 Full point group                 C1      NOp   1
 Largest Abelian subgroup         C1      NOp   1
 Largest concise Abelian subgroup C1      NOp   1
                         Standard orientation:                         
 ---------------------------------------------------------------------
 Center     Atomic      Atomic             Coordinates (Angstroms)
 Number     Number       Type             X           Y           Z
 ---------------------------------------------------------------------
      1          7           0       -0.514106    3.879452    0.002444
      2          6           0       -0.281513    2.704185   -0.021117
      3          6           0        0.100662    1.297682    0.002877
      4          6           0        1.474336    0.975711   -0.000830
      5          6           0        1.899568   -0.387643    0.012998
      6          6           0        0.937338   -1.426519    0.023630
      7          6           0       -0.465657   -1.128125    0.034212
      8          6           0       -0.925024    0.265543    0.020988
      9          6           0       -2.318390    0.622445    0.022179
     10          6           0       -3.214022   -0.463437   -0.024140
     11          6           0       -2.801815   -1.830776   -0.036925
     12          6           0       -1.446431   -2.165604    0.008684
     13          7           0        4.486087   -0.980272   -0.024269
     14          6           0        3.319623   -0.709720   -0.006977
     15          1           0        2.223136    1.777240   -0.020564
     16          1           0        1.276796   -2.470510   -0.005222
     17          1           0       -4.297129   -0.261531   -0.004349
     18          1           0       -3.543540   -2.645363   -0.044617
     19          1           0       -1.135170   -3.216543    0.014041
 ---------------------------------------------------------------------
 Rotational constants (GHZ):      0.9686700      0.5882270      0.3660229
 Standard basis: STO-3G (5D, 7F)
 There are    75 symmetry adapted cartesian basis functions of A   symmetry.
 There are    75 symmetry adapted basis functions of A   symmetry.
    75 basis functions,   225 primitive gaussians,    75 cartesian basis functions
    46 alpha electrons       46 beta electrons
       nuclear repulsion energy       695.4191689373 Hartrees.
 NAtoms=   19 NActive=   19 NUniq=   19 SFac= 1.00D+00 NAtFMM=   60 NAOKFM=F Big=F
 Integral buffers will be    131072 words long.
 Raffenetti 2 integral format.
 Two-electron integral symmetry is turned on.
 One-electron integrals computed using PRISM.
 NBasis=    75 RedAO= T EigKep=  1.74D-01  NBF=    75
 NBsUse=    75 1.00D-06 EigRej= -1.00D+00 NBFU=    75
 Initial guess from the checkpoint file:  "/tmp/bnp.472699.sequoia/Gau-14752.chk"
 B after Tr=     0.000000    0.000000    0.000000
         Rot=    0.999998   -0.000013    0.000024   -0.002133 Ang=  -0.24 deg.
 ExpMin= 1.69D-01 ExpMax= 9.91D+01 ExpMxC= 9.91D+01 IAcc=1 IRadAn=         1 AccDes= 0.00D+00
 Harris functional with IExCor=  402 and IRadAn=       1 diagonalized for initial guess.
 HarFok:  IExCor=  402 AccDes= 0.00D+00 IRadAn=         1 IDoV= 1 UseB2=F ITyADJ=14
 ICtDFT=  3500011 ScaDFX=  1.000000  1.000000  1.000000  1.000000
 FoFCou: FMM=F IPFlag=           0 FMFlag=      100000 FMFlg1=           0
         NFxFlg=           0 DoJE=T BraDBF=F KetDBF=T FulRan=T
         wScrn=  0.000000 ICntrl=     500 IOpCl=  0 I1Cent=   200000004 NGrid=           0
         NMat0=    1 NMatS0=      1 NMatT0=    0 NMatD0=    1 NMtDS0=    0 NMtDT0=    0
 Petite list used in FoFCou.
 Keep R1 ints in memory in canonical form, NReq=4993994.
 Requested convergence on RMS density matrix=1.00D-08 within 128 cycles.
 Requested convergence on MAX density matrix=1.00D-06.
 Requested convergence on             energy=1.00D-06.
 No special actions if energy rises.
 Integral accuracy reduced to 1.0D-05 until final iterations.
 Initial convergence to 1.0D-05 achieved.  Increase integral accuracy.
 SCF Done:  E(RB3LYP) =  -562.502615025     A.U. after   19 cycles
            NFock= 19  Conv=0.51D-08     -V/T= 2.0141
 Calling FoFJK, ICntrl=      2127 FMM=F ISym2X=0 I1Cent= 0 IOpClX= 0 NMat=1 NMatS=1 NMatT=0.
 ***** Axes restored to original set *****
 -------------------------------------------------------------------
 Center     Atomic                   Forces (Hartrees/Bohr)
 Number     Number              X              Y              Z
 -------------------------------------------------------------------
      1        7          -0.005984375    0.000547797   -0.000301384
      2        6           0.000262838   -0.003182381    0.000381708
      3        6           0.012967595    0.011517320   -0.001059769
      4        6          -0.010807805   -0.004040786   -0.000783260
      5        6           0.006813672   -0.006118214    0.000488969
      6        6          -0.005161662    0.001770860    0.001196615
      7        6           0.004112987    0.014120117    0.005443405
      8        6           0.013827418   -0.010513536   -0.003130082
      9        6          -0.032643834   -0.004447931    0.003768922
     10        6           0.007174332    0.010118474   -0.002538335
     11        6           0.002727427   -0.000626675   -0.003701861
     12        6           0.000895089   -0.010561333   -0.000267499
     13        7           0.002983783    0.005667082   -0.000116788
     14        6          -0.002292385   -0.003180030    0.000206234
     15        1           0.000424627    0.000918414   -0.000198650
     16        1           0.001147108   -0.000090197   -0.002192510
     17        1           0.002361305   -0.003320733    0.001615266
     18        1           0.000492796   -0.000639213    0.000135606
     19        1           0.000699085    0.002060965    0.001053415
 -------------------------------------------------------------------
 Cartesian Forces:  Max     0.032643834 RMS     0.006803263

 GradGradGradGradGradGradGradGradGradGradGradGradGradGradGradGradGradGrad
 Berny optimization.
 Using GEDIIS/GDIIS optimizer.
 FormGI is forming the generalized inverse of G from B-inverse, IUseBI=4.
 Internal  Forces:  Max     0.019892216 RMS     0.003981206
 Search for a local minimum.
 Step number   2 out of a maximum of  102
 All quantities printed in internal units (Hartrees-Bohrs-Radians)
 Mixed Optimization -- RFO/linear search
 Update second derivatives using D2CorX and points    1    2
 DE= -3.02D-02 DEPred=-3.20D-02 R= 9.45D-01
 TightC=F SS=  1.41D+00  RLast= 3.37D-01 DXNew= 5.0454D-01 1.0120D+00
 Trust test= 9.45D-01 RLast= 3.37D-01 DXMaxT set to 5.05D-01
 ITU=  1  0
 Use linear search instead of GDIIS.
     Eigenvalues ---    0.01597   0.01612   0.01951   0.01956   0.01989
     Eigenvalues ---    0.02013   0.02036   0.02082   0.02087   0.02089
     Eigenvalues ---    0.02104   0.02113   0.02124   0.02183   0.02194
     Eigenvalues ---    0.02238   0.04863   0.04863   0.15850   0.15992
     Eigenvalues ---    0.15994   0.15999   0.16040   0.21113   0.22185
     Eigenvalues ---    0.23471   0.23583   0.24028   0.24989   0.24996
     Eigenvalues ---    0.25007   0.34712   0.34796   0.34950   0.35134
     Eigenvalues ---    0.35254   0.38628   0.39796   0.40462   0.41026
     Eigenvalues ---    0.42030   0.43320   0.44044   0.44973   0.45257
     Eigenvalues ---    0.45781   0.45930   0.46754   0.50973   1.27555
     Eigenvalues ---    1.34195
 RFO step:  Lambda=-5.52118097D-03 EMin= 1.59667290D-02
 Quartic linear search produced a step of  0.26005.
 Iteration  1 RMS(Cart)=  0.04164740 RMS(Int)=  0.00163655
 Iteration  2 RMS(Cart)=  0.00239712 RMS(Int)=  0.00069285
 Iteration  3 RMS(Cart)=  0.00000312 RMS(Int)=  0.00069285
 Iteration  4 RMS(Cart)=  0.00000000 RMS(Int)=  0.00069285
 Variable       Old X    -DE/DX   Delta X   Delta X   Delta X     New X
                                 (Linear)    (Quad)   (Total)
    R1        2.26445   0.00600   0.01860  -0.01141   0.00719   2.27163
    R2        2.75465   0.00574   0.01008   0.00810   0.01818   2.77283
    R3        2.66623  -0.00619   0.00372  -0.02053  -0.01687   2.64936
    R4        2.74997   0.00347   0.02143  -0.01016   0.01126   2.76123
    R5        2.69890   0.00465   0.01559  -0.00274   0.01280   2.71170
    R6        2.07314   0.00056   0.00302  -0.00093   0.00209   2.07524
    R7        2.67599  -0.00385   0.00868  -0.01909  -0.01041   2.66558
    R8        2.75193   0.00252   0.01093  -0.00274   0.00819   2.76012
    R9        2.71065  -0.00151   0.01530  -0.01880  -0.00343   2.70722
   R10        2.07524   0.00120   0.00393   0.00045   0.00439   2.07963
   R11        2.77314   0.00394   0.02558  -0.01169   0.01386   2.78700
   R12        2.69836   0.00366   0.01146  -0.00092   0.01030   2.70866
   R13        2.71809   0.01220   0.01617   0.01944   0.03580   2.75388
   R14        2.66139   0.00732   0.00752   0.01230   0.02002   2.68141
   R15        2.69887   0.00415   0.01865  -0.00778   0.01093   2.70979
   R16        2.08237   0.00201   0.00757  -0.00025   0.00732   2.08970
   R17        2.63971  -0.00336   0.00074  -0.01072  -0.01011   2.62960
   R18        2.08193   0.00080   0.00696  -0.00387   0.00309   2.08502
   R19        2.07128   0.00076   0.00355  -0.00072   0.00282   2.07411
   R20        2.26305   0.00641   0.01832  -0.01076   0.00756   2.27061
    A1        2.06622   0.00079  -0.00011   0.00324   0.00314   2.06936
    A2        2.09413  -0.00606  -0.00605  -0.02456  -0.03060   2.06353
    A3        2.12282   0.00528   0.00615   0.02130   0.02741   2.15023
    A4        2.10331  -0.00204   0.00091  -0.01227  -0.01143   2.09187
    A5        2.09193   0.00190  -0.00009   0.01237   0.01231   2.10424
    A6        2.08793   0.00015  -0.00082  -0.00011  -0.00091   2.08703
    A7        2.09218  -0.00012   0.00069  -0.00224  -0.00164   2.09054
    A8        2.09593  -0.00075  -0.00131  -0.00203  -0.00343   2.09250
    A9        2.09493   0.00086   0.00059   0.00399   0.00449   2.09942
   A10        2.10838   0.00106  -0.00027   0.00554   0.00496   2.11335
   A11        2.07967  -0.00042  -0.00092  -0.00139  -0.00284   2.07683
   A12        2.09474  -0.00067   0.00109  -0.00532  -0.00470   2.09003
   A13        2.09864   0.00189   0.00295   0.00646   0.00947   2.10811
   A14        2.11828   0.00163   0.00274   0.00383   0.00592   2.12420
   A15        2.06560  -0.00357  -0.00587  -0.01224  -0.01964   2.04595
   A16        2.04100  -0.00606  -0.01044  -0.01888  -0.02897   2.01203
   A17        2.10227  -0.00698  -0.00928  -0.02754  -0.03659   2.06568
   A18        2.13991   0.01304   0.01972   0.04644   0.06553   2.20544
   A19        2.00944  -0.01989  -0.02963  -0.06707  -0.09633   1.91310
   A20        2.15908   0.01030   0.01801   0.03605   0.05373   2.21281
   A21        2.07511  -0.00147  -0.00400   0.00421  -0.00017   2.07495
   A22        2.04797  -0.00886  -0.01428  -0.04143  -0.05590   1.99207
   A23        2.10510   0.00201   0.00348   0.00199   0.00467   2.10978
   A24        2.11021  -0.00095   0.00341  -0.00649  -0.00343   2.10678
   A25        2.06718  -0.00111  -0.00707   0.00292  -0.00444   2.06275
   A26        2.08620  -0.00197  -0.00599  -0.00845  -0.01540   2.07080
   A27        2.09614  -0.00116  -0.00195  -0.00707  -0.00856   2.08758
   A28        2.10079   0.00313   0.00792   0.01542   0.02373   2.12452
   A29        3.21135   0.00036   0.01114   0.00192   0.01306   3.22442
   A30        3.13671   0.00007   0.00036   0.00116   0.00152   3.13823
   A31        3.18127  -0.00085   0.01028  -0.06716  -0.05688   3.12439
   A32        3.14075  -0.00004  -0.00025  -0.00058  -0.00084   3.13992
    D1       -3.13425   0.00002   0.00199   0.00021   0.00192  -3.13233
    D2        0.00090  -0.00006   0.00031  -0.00232  -0.00216  -0.00126
    D3        0.00021  -0.00009  -0.00002  -0.00367  -0.00373  -0.00352
    D4        3.13536  -0.00018  -0.00171  -0.00620  -0.00781   3.12755
    D5        3.13355  -0.00008  -0.00216  -0.00204  -0.00411   3.12944
    D6       -0.00547  -0.00039  -0.00155  -0.01230  -0.01438  -0.01985
    D7       -0.00080   0.00001  -0.00010   0.00178   0.00139   0.00059
    D8       -3.13982  -0.00030   0.00050  -0.00848  -0.00888   3.13449
    D9        0.00566   0.00024   0.00146   0.00804   0.00969   0.01535
   D10        3.12888  -0.00029  -0.00325  -0.00948  -0.01266   3.11622
   D11       -3.12950   0.00032   0.00314   0.01051   0.01368  -3.11582
   D12       -0.00628  -0.00021  -0.00157  -0.00701  -0.00867  -0.01495
   D13       -0.01097  -0.00032  -0.00277  -0.01067  -0.01354  -0.02450
   D14        3.10046  -0.00155  -0.01067  -0.05532  -0.06640   3.03406
   D15       -3.13420   0.00023   0.00193   0.00691   0.00899  -3.12521
   D16       -0.02278  -0.00100  -0.00596  -0.03774  -0.04388  -0.06665
   D17        0.01039   0.00025   0.00265   0.00891   0.01138   0.02177
   D18        3.11181  -0.00137  -0.00778  -0.04902  -0.05783   3.05398
   D19       -3.10077   0.00148   0.01061   0.05387   0.06461  -3.03617
   D20        0.00065  -0.00014   0.00019  -0.00406  -0.00461  -0.00396
   D21       -0.00441  -0.00008  -0.00118  -0.00430  -0.00503  -0.00945
   D22        3.13455   0.00020  -0.00181   0.00608   0.00601   3.14056
   D23       -3.10703   0.00138   0.00893   0.05155   0.06063  -3.04640
   D24        0.03193   0.00166   0.00830   0.06193   0.07167   0.10360
   D25       -3.09464   0.00183   0.01225   0.05883   0.07295  -3.02169
   D26        0.03556   0.00136   0.00921   0.04887   0.05891   0.09447
   D27        0.00752   0.00036   0.00201   0.00238   0.00672   0.01424
   D28        3.13772  -0.00011  -0.00102  -0.00758  -0.00732   3.13040
   D29        3.09092  -0.00148  -0.01317  -0.06042  -0.07191   3.01901
   D30       -0.04795  -0.00177  -0.01252  -0.07117  -0.08327  -0.13122
   D31        0.02754   0.00056   0.00720   0.02184   0.02771   0.05525
   D32        3.11925  -0.00065  -0.00569  -0.00807  -0.01585   3.10340
   D33        0.00968   0.00072   0.00254   0.03733   0.03874   0.04842
   D34        3.11080  -0.00052  -0.00795  -0.00909  -0.01708   3.09372
   D35       -3.08275   0.00172   0.01524   0.06564   0.07922  -3.00353
   D36        0.01837   0.00049   0.00475   0.01922   0.02341   0.04178
   D37       -0.02769  -0.00135  -0.00728  -0.04936  -0.05633  -0.08402
   D38        3.12532  -0.00085  -0.00423  -0.03922  -0.04176   3.08357
   D39       -3.12979  -0.00015   0.00296  -0.00385  -0.00190  -3.13170
   D40        0.02322   0.00035   0.00600   0.00628   0.01267   0.03589
         Item               Value     Threshold  Converged?
 Maximum Force            0.019892     0.000450     NO 
 RMS     Force            0.003981     0.000300     NO 
 Maximum Displacement     0.180131     0.001800     NO 
 RMS     Displacement     0.042347     0.001200     NO 
 Predicted change in Energy=-3.587340D-03
 GradGradGradGradGradGradGradGradGradGradGradGradGradGradGradGradGradGrad

                          Input orientation:                          
 ---------------------------------------------------------------------
 Center     Atomic      Atomic             Coordinates (Angstroms)
 Number     Number       Type             X           Y           Z
 ---------------------------------------------------------------------
      1          7           0        1.116242    0.082959   -0.003679
      2          6           0        2.314816    0.008351    0.050093
      3          6           0        3.781176    0.038914    0.093499
      4          6           0        4.426647    1.283308    0.073396
      5          6           0        5.859975    1.345132    0.103264
      6          6           0        6.612164    0.152250    0.133935
      7          6           0        5.968723   -1.127322    0.165915
      8          6           0        4.497964   -1.233519    0.140080
      9          6           0        3.720059   -2.465537    0.166471
     10          6           0        4.589543   -3.580472    0.046835
     11          6           0        6.021656   -3.549381   -0.018943
     12          6           0        6.715749   -2.348303    0.090556
     13          7           0        7.091945    3.703007    0.004933
     14          6           0        6.533969    2.639832    0.050259
     15          1           0        3.844853    2.213439    0.024965
     16          1           0        7.708153    0.210503    0.053297
     17          1           0        4.160685   -4.598982    0.086262
     18          1           0        6.603967   -4.485324   -0.066815
     19          1           0        7.812773   -2.314074    0.095996
 ---------------------------------------------------------------------
                    Distance matrix (angstroms):
                    1          2          3          4          5
     1  N    0.000000
     2  C    1.202097   0.000000
     3  C    2.667069   1.467320   0.000000
     4  C    3.522152   2.466959   1.401982   0.000000
     5  C    4.909941   3.789190   2.455139   1.434972   0.000000
     6  C    5.498081   4.300574   2.833544   2.461594   1.410566
     7  C    5.004010   3.828081   2.480064   2.863163   2.475638
     8  C    3.631780   2.513260   1.461178   2.518721   2.916483
     9  C    3.647416   2.847521   2.506259   3.815989   4.370862
    10  C    5.048475   4.249005   3.708853   4.866580   5.087117
    11  C    6.103869   5.138374   4.231815   5.089938   4.898707
    12  C    6.105276   4.992361   3.782927   4.292888   3.791303
    13  N    6.986690   6.039327   4.939090   3.600478   2.662140
    14  C    5.991016   4.972519   3.787415   2.506292   1.460591
    15  H    3.461947   2.684037   2.176536   1.098168   2.195633
    16  H    6.593391   5.397125   3.930930   3.452477   2.169250
    17  H    5.585454   4.963473   4.653403   5.888314   6.182263
    18  H    7.140611   6.213179   5.335033   6.167455   5.880193
    19  H    7.113314   5.968525   4.668012   4.940397   4.147681
                    6          7          8          9         10
     6  C    0.000000
     7  C    1.432600   0.000000
     8  C    2.527892   1.474815   0.000000
     9  C    3.901043   2.616737   1.457292   0.000000
    10  C    4.246387   2.816783   2.350589   1.418942   0.000000
    11  C    3.751552   2.429680   2.776714   2.550774   1.433961
    12  C    2.503074   1.433360   2.482694   2.998944   2.457825
    13  N    3.585346   4.961816   5.578198   7.031830   7.701483
    14  C    2.490217   3.811080   4.376784   5.830642   6.517131
    15  H    3.452301   3.961234   3.510175   4.682778   5.841613
    16  H    1.100494   2.197288   3.521086   4.804049   4.908896
    17  H    5.346609   3.915070   3.382750   2.179948   1.105819
    18  H    4.641924   3.425474   3.879728   3.528581   2.211239
    19  H    2.743293   2.194034   3.486761   4.096122   3.463437
                   11         12         13         14         15
    11  C    0.000000
    12  C    1.391525   0.000000
    13  N    7.330976   6.063597   0.000000
    14  C    6.210766   4.991609   1.201554   0.000000
    15  H    6.160397   5.390347   3.572509   2.722829   0.000000
    16  H    4.121434   2.744766   3.546778   2.698214   4.351740
    17  H    2.139146   3.404986   8.804653   7.618019   6.820014
    18  H    1.103343   2.145721   8.203172   7.126462   7.245313
    19  H    2.178829   1.097571   6.060787   5.116504   6.020615
                   16         17         18         19
    16  H    0.000000
    17  H    5.976350   0.000000
    18  H    4.825396   2.450710   0.000000
    19  H    2.527104   4.307975   2.490391   0.000000
 Stoichiometry    C12H5N2(1-)
 Framework group  C1[X(C12H5N2)]
 Deg. of freedom    51
 Full point group                 C1      NOp   1
 Largest Abelian subgroup         C1      NOp   1
 Largest concise Abelian subgroup C1      NOp   1
                         Standard orientation:                         
 ---------------------------------------------------------------------
 Center     Atomic      Atomic             Coordinates (Angstroms)
 Number     Number       Type             X           Y           Z
 ---------------------------------------------------------------------
      1          7           0       -0.611854    3.851851   -0.060250
      2          6           0       -0.353433    2.678864   -0.011710
      3          6           0        0.079911    1.277495    0.025809
      4          6           0        1.454050    1.000028    0.008307
      5          6           0        1.908382   -0.360905    0.032556
      6          6           0        0.968888   -1.412828    0.055109
      7          6           0       -0.438542   -1.147066    0.084332
      8          6           0       -0.945856    0.237600    0.064082
      9          6           0       -2.344612    0.645751    0.088468
     10          6           0       -3.176414   -0.496677   -0.039435
     11          6           0       -2.751680   -1.864423   -0.110957
     12          6           0       -1.406160   -2.201227    0.000759
     13          7           0        4.514735   -0.894929   -0.060884
     14          6           0        3.338835   -0.651761   -0.017754
     15          1           0        2.187976    1.815841   -0.033813
     16          1           0        1.327148   -2.449906   -0.029778
     17          1           0       -4.273780   -0.365288   -0.002545
     18          1           0       -3.490769   -2.681843   -0.165163
     19          1           0       -1.070959   -3.246360    0.001844
 ---------------------------------------------------------------------
 Rotational constants (GHZ):      0.9745119      0.5872522      0.3667481
 Standard basis: STO-3G (5D, 7F)
 There are    75 symmetry adapted cartesian basis functions of A   symmetry.
 There are    75 symmetry adapted basis functions of A   symmetry.
    75 basis functions,   225 primitive gaussians,    75 cartesian basis functions
    46 alpha electrons       46 beta electrons
       nuclear repulsion energy       695.0088352263 Hartrees.
 NAtoms=   19 NActive=   19 NUniq=   19 SFac= 1.00D+00 NAtFMM=   60 NAOKFM=F Big=F
 Integral buffers will be    131072 words long.
 Raffenetti 2 integral format.
 Two-electron integral symmetry is turned on.
 One-electron integrals computed using PRISM.
 NBasis=    75 RedAO= T EigKep=  1.76D-01  NBF=    75
 NBsUse=    75 1.00D-06 EigRej= -1.00D+00 NBFU=    75
 Initial guess from the checkpoint file:  "/tmp/bnp.472699.sequoia/Gau-14752.chk"
 B after Tr=     0.000000    0.000000    0.000000
         Rot=    0.999957    0.000002    0.000032   -0.009266 Ang=   1.06 deg.
 ExpMin= 1.69D-01 ExpMax= 9.91D+01 ExpMxC= 9.91D+01 IAcc=1 IRadAn=         1 AccDes= 0.00D+00
 Harris functional with IExCor=  402 and IRadAn=       1 diagonalized for initial guess.
 HarFok:  IExCor=  402 AccDes= 0.00D+00 IRadAn=         1 IDoV= 1 UseB2=F ITyADJ=14
 ICtDFT=  3500011 ScaDFX=  1.000000  1.000000  1.000000  1.000000
 FoFCou: FMM=F IPFlag=           0 FMFlag=      100000 FMFlg1=           0
         NFxFlg=           0 DoJE=T BraDBF=F KetDBF=T FulRan=T
         wScrn=  0.000000 ICntrl=     500 IOpCl=  0 I1Cent=   200000004 NGrid=           0
         NMat0=    1 NMatS0=      1 NMatT0=    0 NMatD0=    1 NMtDS0=    0 NMtDT0=    0
 Petite list used in FoFCou.
 Keep R1 ints in memory in canonical form, NReq=4993994.
 Requested convergence on RMS density matrix=1.00D-08 within 128 cycles.
 Requested convergence on MAX density matrix=1.00D-06.
 Requested convergence on             energy=1.00D-06.
 No special actions if energy rises.
 Integral accuracy reduced to 1.0D-05 until final iterations.
 Initial convergence to 1.0D-05 achieved.  Increase integral accuracy.
 SCF Done:  E(RB3LYP) =  -562.506202246     A.U. after   17 cycles
            NFock= 17  Conv=0.61D-08     -V/T= 2.0141
 Calling FoFJK, ICntrl=      2127 FMM=F ISym2X=0 I1Cent= 0 IOpClX= 0 NMat=1 NMatS=1 NMatT=0.
 ***** Axes restored to original set *****
 -------------------------------------------------------------------
 Center     Atomic                   Forces (Hartrees/Bohr)
 Number     Number              X              Y              Z
 -------------------------------------------------------------------
      1        7           0.003444829   -0.000051185    0.001399695
      2        6          -0.005488599   -0.001223812   -0.002665381
      3        6           0.003727480    0.001420482    0.001621081
      4        6          -0.002915626    0.000125950    0.000382002
      5        6           0.002500317    0.000064463   -0.000810741
      6        6          -0.002728017   -0.000628461   -0.000477135
      7        6          -0.001480276    0.002695615   -0.002453105
      8        6           0.005432856    0.005843840    0.000662088
      9        6          -0.005042639   -0.001524292   -0.000939246
     10        6           0.002261946   -0.004323536    0.002427265
     11        6           0.000985637    0.000391153    0.002764338
     12        6           0.001577313   -0.001522194   -0.001250229
     13        7          -0.001498057   -0.002765940    0.000218406
     14        6           0.001093186    0.002288283   -0.000115447
     15        1           0.000557833   -0.000287738    0.000222505
     16        1          -0.000331348   -0.000503290    0.001372744
     17        1          -0.000163284   -0.000091735   -0.001344675
     18        1          -0.001641385    0.000079002   -0.001253132
     19        1          -0.000292168    0.000013396    0.000238967
 -------------------------------------------------------------------
 Cartesian Forces:  Max     0.005843840 RMS     0.002188964

 GradGradGradGradGradGradGradGradGradGradGradGradGradGradGradGradGradGrad
 Berny optimization.
 Using GEDIIS/GDIIS optimizer.
 FormGI is forming the generalized inverse of G from B-inverse, IUseBI=4.
 Internal  Forces:  Max     0.005511893 RMS     0.001191486
 Search for a local minimum.
 Step number   3 out of a maximum of  102
 All quantities printed in internal units (Hartrees-Bohrs-Radians)
 Mixed Optimization -- RFO/linear search
 Update second derivatives using D2CorX and points    1    2    3
 DE= -3.59D-03 DEPred=-3.59D-03 R= 1.00D+00
 TightC=F SS=  1.41D+00  RLast= 3.03D-01 DXNew= 8.4853D-01 9.0965D-01
 Trust test= 1.00D+00 RLast= 3.03D-01 DXMaxT set to 8.49D-01
 ITU=  1  1  0
 Use linear search instead of GDIIS.
     Eigenvalues ---    0.01598   0.01623   0.01952   0.01960   0.01992
     Eigenvalues ---    0.02029   0.02049   0.02087   0.02089   0.02098
     Eigenvalues ---    0.02108   0.02124   0.02147   0.02190   0.02210
     Eigenvalues ---    0.02531   0.04863   0.04863   0.15288   0.15946
     Eigenvalues ---    0.15988   0.15996   0.16094   0.18921   0.22149
     Eigenvalues ---    0.23452   0.23729   0.23878   0.24949   0.24980
     Eigenvalues ---    0.25223   0.34718   0.34802   0.34951   0.35145
     Eigenvalues ---    0.35230   0.38259   0.39327   0.40440   0.40878
     Eigenvalues ---    0.41710   0.43413   0.43704   0.44829   0.45160
     Eigenvalues ---    0.45874   0.45946   0.46798   0.51115   1.27553
     Eigenvalues ---    1.36777
 RFO step:  Lambda=-9.67039743D-04 EMin= 1.59813737D-02
 Quartic linear search produced a step of -0.05301.
 Iteration  1 RMS(Cart)=  0.02601734 RMS(Int)=  0.00165752
 Iteration  2 RMS(Cart)=  0.00181791 RMS(Int)=  0.00009651
 Iteration  3 RMS(Cart)=  0.00000592 RMS(Int)=  0.00009646
 Iteration  4 RMS(Cart)=  0.00000000 RMS(Int)=  0.00009646
 Variable       Old X    -DE/DX   Delta X   Delta X   Delta X     New X
                                 (Linear)    (Quad)   (Total)
    R1        2.27163  -0.00350  -0.00038   0.00044   0.00006   2.27170
    R2        2.77283   0.00211  -0.00096   0.00888   0.00792   2.78075
    R3        2.64936  -0.00113   0.00089  -0.00426  -0.00337   2.64599
    R4        2.76123  -0.00074  -0.00060   0.00245   0.00185   2.76307
    R5        2.71170   0.00117  -0.00068   0.00635   0.00567   2.71737
    R6        2.07524  -0.00055  -0.00011  -0.00084  -0.00096   2.07428
    R7        2.66558  -0.00038   0.00055  -0.00150  -0.00094   2.66465
    R8        2.76012  -0.00061  -0.00043   0.00100   0.00056   2.76068
    R9        2.70722  -0.00192   0.00018  -0.00326  -0.00307   2.70415
   R10        2.07963  -0.00046  -0.00023  -0.00014  -0.00037   2.07926
   R11        2.78700  -0.00272  -0.00073  -0.00142  -0.00221   2.78478
   R12        2.70866   0.00268  -0.00055   0.00815   0.00758   2.71624
   R13        2.75388   0.00551  -0.00190   0.01919   0.01725   2.77113
   R14        2.68141   0.00325  -0.00106   0.01072   0.00969   2.69110
   R15        2.70979  -0.00035  -0.00058   0.00297   0.00246   2.71225
   R16        2.08970   0.00010  -0.00039   0.00221   0.00182   2.09151
   R17        2.62960   0.00091   0.00054   0.00009   0.00066   2.63026
   R18        2.08502  -0.00088  -0.00016  -0.00114  -0.00130   2.08371
   R19        2.07411  -0.00029  -0.00015   0.00004  -0.00011   2.07400
   R20        2.27061  -0.00315  -0.00040   0.00073   0.00033   2.27094
    A1        2.06936   0.00121  -0.00017   0.00480   0.00463   2.07399
    A2        2.06353  -0.00182   0.00162  -0.01252  -0.01090   2.05264
    A3        2.15023   0.00061  -0.00145   0.00769   0.00623   2.15646
    A4        2.09187  -0.00145   0.00061  -0.00667  -0.00606   2.08581
    A5        2.10424   0.00105  -0.00065   0.00637   0.00572   2.10995
    A6        2.08703   0.00039   0.00005   0.00033   0.00037   2.08740
    A7        2.09054  -0.00039   0.00009  -0.00102  -0.00095   2.08959
    A8        2.09250  -0.00004   0.00018  -0.00083  -0.00069   2.09181
    A9        2.09942   0.00044  -0.00024   0.00240   0.00212   2.10153
   A10        2.11335   0.00119  -0.00026   0.00525   0.00498   2.11833
   A11        2.07683  -0.00003   0.00015   0.00119   0.00130   2.07813
   A12        2.09003  -0.00111   0.00025  -0.00522  -0.00502   2.08501
   A13        2.10811  -0.00089  -0.00050  -0.00197  -0.00249   2.10562
   A14        2.12420   0.00088  -0.00031   0.00627   0.00596   2.13016
   A15        2.04595   0.00007   0.00104  -0.00295  -0.00194   2.04402
   A16        2.01203   0.00093   0.00154  -0.00311  -0.00158   2.01046
   A17        2.06568  -0.00096   0.00194  -0.01012  -0.00819   2.05749
   A18        2.20544   0.00004  -0.00347   0.01321   0.00974   2.21518
   A19        1.91310  -0.00022   0.00511  -0.01759  -0.01239   1.90071
   A20        2.21281  -0.00095  -0.00285   0.00746   0.00446   2.21727
   A21        2.07495   0.00050   0.00001   0.00282   0.00243   2.07737
   A22        1.99207   0.00055   0.00296  -0.00679  -0.00423   1.98784
   A23        2.10978   0.00088  -0.00025   0.00463   0.00439   2.11417
   A24        2.10678  -0.00185   0.00018  -0.00886  -0.00893   2.09785
   A25        2.06275   0.00106   0.00024   0.00689   0.00689   2.06963
   A26        2.07080   0.00027   0.00082  -0.00340  -0.00249   2.06831
   A27        2.08758  -0.00019   0.00045  -0.00159  -0.00121   2.08637
   A28        2.12452  -0.00008  -0.00126   0.00519   0.00387   2.12839
   A29        3.22442   0.00040  -0.00069   0.02667   0.02597   3.25039
   A30        3.13823   0.00011  -0.00008   0.00235   0.00227   3.14050
   A31        3.12439   0.00255   0.00302   0.13501   0.13803   3.26242
   A32        3.13992   0.00018   0.00004   0.00325   0.00330   3.14322
    D1       -3.13233   0.00010  -0.00010   0.00458   0.00451  -3.12782
    D2       -0.00126   0.00019   0.00011   0.00797   0.00812   0.00685
    D3       -0.00352   0.00006   0.00020   0.00199   0.00220  -0.00132
    D4        3.12755   0.00015   0.00041   0.00539   0.00580   3.13335
    D5        3.12944  -0.00010   0.00022  -0.00612  -0.00590   3.12354
    D6       -0.01985  -0.00014   0.00076  -0.00964  -0.00880  -0.02864
    D7        0.00059  -0.00009  -0.00007  -0.00366  -0.00373  -0.00313
    D8        3.13449  -0.00013   0.00047  -0.00718  -0.00662   3.12787
    D9        0.01535  -0.00015  -0.00051  -0.00395  -0.00446   0.01089
   D10        3.11622   0.00032   0.00067   0.01165   0.01232   3.12855
   D11       -3.11582  -0.00024  -0.00073  -0.00735  -0.00805  -3.12387
   D12       -0.01495   0.00023   0.00046   0.00825   0.00873  -0.00622
   D13       -0.02450   0.00023   0.00072   0.00779   0.00852  -0.01598
   D14        3.03406   0.00084   0.00352   0.02464   0.02823   3.06229
[...]
 ! D15   D(14,5,6,7)          -180.0035         -DE/DX =    0.0                 !
 ! D16   D(14,5,6,16)           -0.0064         -DE/DX =    0.0                 !
 ! D17   D(5,6,7,8)              0.0132         -DE/DX =    0.0                 !
 ! D18   D(5,6,7,12)          -180.0025         -DE/DX =    0.0                 !
 ! D19   D(16,6,7,8)          -179.9839         -DE/DX =    0.0                 !
 ! D20   D(16,6,7,12)            0.0004         -DE/DX =    0.0                 !
 ! D21   D(6,7,8,3)             -0.0096         -DE/DX =    0.0                 !
 ! D22   D(6,7,8,9)            179.9955         -DE/DX =    0.0                 !
 ! D23   D(12,7,8,3)           180.0054         -DE/DX =    0.0                 !
 ! D24   D(12,7,8,9)             0.0104         -DE/DX =    0.0                 !
 ! D25   D(6,7,12,11)         -179.9811         -DE/DX =    0.0                 !
 ! D26   D(6,7,12,19)            0.0172         -DE/DX =    0.0                 !
 ! D27   D(8,7,12,11)            0.0036         -DE/DX =    0.0                 !
 ! D28   D(8,7,12,19)         -179.9981         -DE/DX =    0.0                 !
 ! D29   D(3,8,9,10)           179.9878         -DE/DX =    0.0                 !
 ! D30   D(7,8,9,10)            -0.0174         -DE/DX =    0.0                 !
 ! D31   D(8,9,10,11)            0.0126         -DE/DX =    0.0                 !
 ! D32   D(8,9,10,17)         -179.9866         -DE/DX =    0.0                 !
 ! D33   D(9,10,11,12)          -0.0011         -DE/DX =    0.0                 !
 ! D34   D(9,10,11,18)         179.9953         -DE/DX =    0.0                 !
 ! D35   D(17,10,11,12)        179.9982         -DE/DX =    0.0                 !
 ! D36   D(17,10,11,18)         -0.0055         -DE/DX =    0.0                 !
 ! D37   D(10,11,12,7)          -0.008          -DE/DX =    0.0                 !
 ! D38   D(10,11,12,19)        179.9937         -DE/DX =    0.0                 !
 ! D39   D(18,11,12,7)        -180.0044         -DE/DX =    0.0                 !
 ! D40   D(18,11,12,19)         -0.0027         -DE/DX =    0.0                 !
 --------------------------------------------------------------------------------
 GradGradGradGradGradGradGradGradGradGradGradGradGradGradGradGradGradGrad

                          Input orientation:                          
 ---------------------------------------------------------------------
 Center     Atomic      Atomic             Coordinates (Angstroms)
 Number     Number       Type             X           Y           Z
 ---------------------------------------------------------------------
      1          7           0        1.124996    0.043059    0.066583
      2          6           0        2.323381   -0.038102    0.066975
      3          6           0        3.796315    0.041017    0.067587
      4          6           0        4.424877    1.291557    0.068277
      5          6           0        5.863333    1.349287    0.068871
      6          6           0        6.615120    0.161020    0.068796
      7          6           0        5.979916   -1.123775    0.068291
      8          6           0        4.515891   -1.221349    0.067544
      9          6           0        3.695091   -2.448555    0.066862
     10          6           0        4.580848   -3.572128    0.066637
     11          6           0        6.012355   -3.549581    0.067244
     12          6           0        6.721718   -2.350303    0.068151
     13          7           0        7.090462    3.711061    0.069920
     14          6           0        6.537196    2.646476    0.069468
     15          1           0        3.843386    2.221828    0.068343
     16          1           0        7.713543    0.222744    0.069085
     17          1           0        4.145634   -4.588684    0.065905
     18          1           0        6.578541   -4.495455    0.067058
     19          1           0        7.818457   -2.325337    0.068722
 ---------------------------------------------------------------------
                    Distance matrix (angstroms):
                    1          2          3          4          5
     1  N    0.000000
     2  C    1.201130   0.000000
     3  C    2.671320   1.475058   0.000000
     4  C    3.528167   2.486821   1.399621   0.000000
     5  C    4.915087   3.802120   2.446249   1.439615   0.000000
     6  C    5.491391   4.296356   2.821358   2.464808   1.406116
     7  C    4.993170   3.814307   2.474844   2.872625   2.475809
     8  C    3.618964   2.491421   1.453052   2.514554   2.902374
     9  C    3.579599   2.773423   2.491630   3.810646   4.373201
    10  C    5.001249   4.193507   3.697338   4.866185   5.085775
    11  C    6.065751   5.093036   4.219387   5.094772   4.901134
    12  C    6.086993   4.969069   3.778412   4.305650   3.797867
    13  N    7.002930   6.064758   4.931595   3.599909   2.661544
    14  C    6.005805   4.996319   3.781646   2.509522   1.461776
    15  H    3.483775   2.723546   2.181319   1.097058   2.200344
    16  H    6.590998   5.396471   3.921441   3.457989   2.166189
    17  H    5.529674   4.901878   4.642861   5.886867   6.181424
    18  H    7.095017   6.162337   5.321688   6.174770   5.888340
    19  H    7.100122   5.952085   4.666611   4.959669   4.162376
                    6          7          8          9         10
     6  C    0.000000
     7  C    1.433242   0.000000
     8  C    2.513505   1.467273   0.000000
     9  C    3.916178   2.641111   1.476397   0.000000
    10  C    4.251431   2.819898   2.351676   1.430727   0.000000
    11  C    3.759240   2.426023   2.767682   2.565535   1.431685
    12  C    2.513585   1.433402   2.477944   3.028221   2.464991
    13  N    3.581723   4.960741   5.563909   7.033450   7.703441
    14  C    2.486677   3.811215   4.364144   5.834116   6.519076
    15  H    3.453902   3.969612   3.508239   4.672738   5.840701
    16  H    1.100157   2.195126   3.508616   4.825329   4.920858
    17  H    5.353322   3.920483   3.387629   2.187039   1.105801
    18  H    4.656619   3.424410   3.869663   3.536111   2.200752
    19  H    2.762244   2.196358   3.482202   4.125207   3.469381
                   11         12         13         14         15
    11  C    0.000000
    12  C    1.393364   0.000000
    13  N    7.340247   6.072570   0.000000
    14  C    6.218246   5.000186   1.199768   0.000000
    15  H    6.165516   5.402701   3.572298   2.727075   0.000000
    16  H    4.138174   2.757588   3.543527   2.694118   4.355968
    17  H    2.136442   3.412706   8.806690   7.620178   6.817216
    18  H    1.102382   2.149925   8.222468   7.142052   7.252791
    19  H    2.181921   1.097024   6.080138   5.134254   6.039694
                   16         17         18         19
    16  H    0.000000
    17  H    5.989977   0.000000
    18  H    4.852797   2.434693   0.000000
    19  H    2.550241   4.314206   2.499361   0.000000
 Stoichiometry    C12H5N2(1-)
 Framework group  C1[X(C12H5N2)]
 Deg. of freedom    51
 Full point group                 C1      NOp   1
 Largest Abelian subgroup         C1      NOp   1
 Largest concise Abelian subgroup C1      NOp   1
                         Standard orientation:                         
 ---------------------------------------------------------------------
 Center     Atomic      Atomic             Coordinates (Angstroms)
 Number     Number       Type             X           Y           Z
 ---------------------------------------------------------------------
      1          7           0       -0.693517    3.826005    0.000026
      2          6           0       -0.427252    2.654760   -0.000029
      3          6           0        0.071358    1.266529   -0.000022
      4          6           0        1.449701    1.023403    0.000030
      5          6           0        1.917926   -0.337940    0.000040
      6          6           0        0.995479   -1.399191    0.000040
      7          6           0       -0.417585   -1.159535    0.000186
      8          6           0       -0.931316    0.214863    0.000046
      9          6           0       -2.342492    0.648834    0.000071
     10          6           0       -3.164510   -0.522176   -0.000152
     11          6           0       -2.731982   -1.886962   -0.000115
     12          6           0       -1.379549   -2.222204    0.000137
     13          7           0        4.532559   -0.835450   -0.000133
     14          6           0        3.353959   -0.611070   -0.000034
     15          1           0        2.173897    1.847464    0.000035
     16          1           0        1.369919   -2.433666   -0.000123
     17          1           0       -4.263214   -0.397092   -0.000395
     18          1           0       -3.475518   -2.700842   -0.000228
     19          1           0       -1.040803   -3.265618    0.000269
 ---------------------------------------------------------------------
 Rotational constants (GHZ):      0.9828158      0.5858909      0.3670685

 **********************************************************************

            Population analysis using the SCF density.

 **********************************************************************

 Orbital symmetries:
       Occupied  (A) (A) (A) (A) (A) (A) (A) (A) (A) (A) (A) (A)
                 (A) (A) (A) (A) (A) (A) (A) (A) (A) (A) (A) (A)
                 (A) (A) (A) (A) (A) (A) (A) (A) (A) (A) (A) (A)
                 (A) (A) (A) (A) (A) (A) (A) (A) (A) (A)
       Virtual   (A) (A) (A) (A) (A) (A) (A) (A) (A) (A) (A) (A)
                 (A) (A) (A) (A) (A) (A) (A) (A) (A) (A) (A) (A)
                 (A) (A) (A) (A) (A)
 The electronic state is 1-A.
 Alpha  occ. eigenvalues --  -13.99983 -13.96610  -9.91257  -9.90440  -9.89520
 Alpha  occ. eigenvalues --   -9.88504  -9.88195  -9.87588  -9.86060  -9.83553
 Alpha  occ. eigenvalues --   -9.83171  -9.83034  -9.78647  -9.66113  -0.73445
 Alpha  occ. eigenvalues --   -0.70175  -0.67209  -0.61315  -0.58615  -0.54198
 Alpha  occ. eigenvalues --   -0.49909  -0.44815  -0.43378  -0.39291  -0.34259
 Alpha  occ. eigenvalues --   -0.31565  -0.30084  -0.28848  -0.24826  -0.23055
 Alpha  occ. eigenvalues --   -0.21164  -0.19919  -0.18517  -0.16876  -0.16629
 Alpha  occ. eigenvalues --   -0.16177  -0.14634  -0.14048  -0.12946  -0.11006
 Alpha  occ. eigenvalues --   -0.10320  -0.08905  -0.06083  -0.02823   0.02519
 Alpha  occ. eigenvalues --    0.11667
 Alpha virt. eigenvalues --    0.16832   0.19762   0.24871   0.27111   0.28526
 Alpha virt. eigenvalues --    0.29420   0.34198   0.37613   0.41933   0.46230
 Alpha virt. eigenvalues --    0.46306   0.51823   0.53096   0.53944   0.57794
 Alpha virt. eigenvalues --    0.59310   0.61838   0.62229   0.68967   0.69130
 Alpha virt. eigenvalues --    0.70803   0.76304   0.78015   0.82410   0.84604
 Alpha virt. eigenvalues --    0.92467   0.93995   1.05691   1.07730
          Condensed to atoms (all electrons):
               1          2          3          4          5          6
     1  N    6.594593   0.658624  -0.010050  -0.000263  -0.000001   0.000000
     2  C    0.658624   4.922095   0.404864  -0.030042   0.000881   0.000010
     3  C   -0.010050   0.404864   4.786191   0.510465  -0.028583  -0.009545
     4  C   -0.000263  -0.030042   0.510465   4.846237   0.464657  -0.029524
     5  C   -0.000001   0.000881  -0.028583   0.464657   4.769432   0.505169
     6  C    0.000000   0.000010  -0.009545  -0.029524   0.505169   4.836330
     7  C   -0.000002   0.000978  -0.033152  -0.007366  -0.027442   0.471179
     8  C    0.000104  -0.031186   0.450195  -0.025240  -0.007908  -0.022600
     9  C   -0.000989   0.006862  -0.038531   0.000775   0.000021   0.000568
    10  C    0.000002  -0.000028   0.001514  -0.000017   0.000001   0.000044
    11  C    0.000000   0.000002   0.000013   0.000001  -0.000008   0.000813
    12  C    0.000000  -0.000005   0.000866   0.000033   0.000746  -0.029078
    13  N    0.000000   0.000000  -0.000001  -0.000074  -0.010927  -0.000112
    14  C    0.000000  -0.000005   0.000827  -0.028362   0.419473  -0.029083
    15  H    0.000072  -0.003296  -0.023652   0.387275  -0.024232   0.001194
    16  H    0.000000   0.000001   0.000017   0.001300  -0.026406   0.383579
    17  H    0.000000  -0.000005  -0.000016   0.000000   0.000000   0.000001
    18  H    0.000000   0.000000   0.000001   0.000000   0.000000  -0.000017
    19  H    0.000000   0.000000  -0.000020   0.000000   0.000009  -0.003301
               7          8          9         10         11         12
     1  N   -0.000002   0.000104  -0.000989   0.000002   0.000000   0.000000
     2  C    0.000978  -0.031186   0.006862  -0.000028   0.000002  -0.000005
     3  C   -0.033152   0.450195  -0.038531   0.001514   0.000013   0.000866
     4  C   -0.007366  -0.025240   0.000775  -0.000017   0.000001   0.000033
     5  C   -0.027442  -0.007908   0.000021   0.000001  -0.000008   0.000746
     6  C    0.471179  -0.022600   0.000568   0.000044   0.000813  -0.029078
     7  C    4.822231   0.433519  -0.016874  -0.012260  -0.029481   0.472780
     8  C    0.433519   4.912109   0.393720  -0.030431  -0.013975  -0.031138
     9  C   -0.016874   0.393720   5.478088   0.448618  -0.018039  -0.005807
    10  C   -0.012260  -0.030431   0.448618   4.940625   0.467300  -0.029631
    11  C   -0.029481  -0.013975  -0.018039   0.467300   4.856158   0.518365
    12  C    0.472780  -0.031138  -0.005807  -0.029631   0.518365   4.870243
    13  N   -0.000001   0.000000   0.000000   0.000000   0.000000   0.000000
    14  C    0.000840   0.000010   0.000000   0.000000   0.000000  -0.000006
    15  H    0.000016   0.001143  -0.000018   0.000000   0.000000   0.000001
    16  H   -0.023724   0.001126  -0.000013  -0.000002   0.000015  -0.003290
    17  H    0.000007   0.002354  -0.032187   0.379477  -0.035648   0.001457
    18  H    0.001492   0.000098   0.001055  -0.023718   0.380129  -0.028398
    19  H   -0.025523   0.001154  -0.000006   0.001254  -0.024896   0.386396
              13         14         15         16         17         18
     1  N    0.000000   0.000000   0.000072   0.000000   0.000000   0.000000
     2  C    0.000000  -0.000005  -0.003296   0.000001  -0.000005   0.000000
     3  C   -0.000001   0.000827  -0.023652   0.000017  -0.000016   0.000001
     4  C   -0.000074  -0.028362   0.387275   0.001300   0.000000   0.000000
     5  C   -0.010927   0.419473  -0.024232  -0.026406   0.000000   0.000000
     6  C   -0.000112  -0.029083   0.001194   0.383579   0.000001  -0.000017
     7  C   -0.000001   0.000840   0.000016  -0.023724   0.000007   0.001492
     8  C    0.000000   0.000010   0.001143   0.001126   0.002354   0.000098
     9  C    0.000000   0.000000  -0.000018  -0.000013  -0.032187   0.001055
    10  C    0.000000   0.000000   0.000000  -0.000002   0.379477  -0.023718
    11  C    0.000000   0.000000   0.000000   0.000015  -0.035648   0.380129
    12  C    0.000000  -0.000006   0.000001  -0.003290   0.001457  -0.028398
    13  N    6.588122   0.660945   0.000054   0.000058   0.000000   0.000000
    14  C    0.660945   4.934090  -0.003001  -0.003489   0.000000   0.000000
    15  H    0.000054  -0.003001   0.595374  -0.000034   0.000000   0.000000
    16  H    0.000058  -0.003489  -0.000034   0.606287   0.000000  -0.000002
    17  H    0.000000   0.000000   0.000000   0.000000   0.673911  -0.003747
    18  H    0.000000   0.000000   0.000000  -0.000002  -0.003747   0.642265
    19  H    0.000000   0.000000   0.000000   0.001008  -0.000040  -0.003770
              19
     1  N    0.000000
     2  C    0.000000
     3  C   -0.000020
     4  C    0.000000
     5  C    0.000009
     6  C   -0.003301
     7  C   -0.025523
     8  C    0.001154
     9  C   -0.000006
    10  C    0.001254
    11  C   -0.024896
    12  C    0.386396
    13  N    0.000000
    14  C    0.000000
    15  H    0.000000
    16  H    0.001008
    17  H   -0.000040
    18  H   -0.003770
    19  H    0.631006
 Mulliken charges:
               1
     1  N   -0.242091
     2  C    0.070252
     3  C   -0.011404
     4  C   -0.089854
     5  C   -0.034882
     6  C   -0.075627
     7  C   -0.027216
     8  C   -0.033053
     9  C   -0.217243
    10  C   -0.142749
    11  C   -0.100748
    12  C   -0.123532
    13  N   -0.238064
    14  C    0.047761
    15  H    0.069103
    16  H    0.063567
    17  H    0.014437
    18  H    0.034613
    19  H    0.036731
 Sum of Mulliken charges =  -1.00000
 Mulliken charges with hydrogens summed into heavy atoms:
               1
     1  N   -0.242091
     2  C    0.070252
     3  C   -0.011404
     4  C   -0.020752
     5  C   -0.034882
     6  C   -0.012060
     7  C   -0.027216
     8  C   -0.033053
     9  C   -0.217243
    10  C   -0.128312
    11  C   -0.066135
    12  C   -0.086801
    13  N   -0.238064
    14  C    0.047761
 Electronic spatial extent (au):  <R**2>=           2789.0902
 Charge=             -1.0000 electrons
 Dipole moment (field-independent basis, Debye):
    X=              2.4350    Y=             -3.8188    Z=             -0.0003  Tot=              4.5291
 Quadrupole moment (field-independent basis, Debye-Ang):
   XX=           -117.1896   YY=            -96.9836   ZZ=            -74.1651
   XY=             11.3185   XZ=              0.0015   YZ=             -0.0007
 Traceless Quadrupole moment (field-independent basis, Debye-Ang):
   XX=            -21.0768   YY=             -0.8708   ZZ=             21.9476
   XY=             11.3185   XZ=              0.0015   YZ=             -0.0007
 Octapole moment (field-independent basis, Debye-Ang**2):
  XXX=            -79.3809  YYY=            -84.4781  ZZZ=             -0.0004  XYY=             30.2527
  XXY=             17.8084  XXZ=              0.0025  XZZ=              4.3448  YZZ=              3.8003
  YYZ=             -0.0018  XYZ=              0.0004
 Hexadecapole moment (field-independent basis, Debye-Ang**3):
 XXXX=          -2983.1247 YYYY=          -1682.4916 ZZZZ=            -58.3877 XXXY=            151.1335
 XXXZ=              0.0306 YYYX=             67.7129 YYYZ=             -0.0043 ZZZX=             -0.0018
 ZZZY=              0.0005 XXYY=           -630.8697 XXZZ=           -376.2904 YYZZ=           -231.6399
 XXYZ=             -0.0055 YYXZ=              0.0021 ZZXY=             -7.4082
 N-N= 6.952468002017D+02 E-N=-2.712737079204D+03  KE= 5.547090353213D+02
 1\1\GINC-N007\FOpt\RB3LYP\STO-3G\C12H5N2(1-)\R2532\15-Jun-2021\0\\#N B
 3LYP/STO-3G OPT\\1Naph\\-1,1\N,1.1249959846,0.0430588626,0.0665829909\
 C,2.3233806284,-0.0381015469,0.0669752943\C,3.7963153037,0.0410172592,
 0.0675867031\C,4.4248765756,1.2915567595,0.0682773471\C,5.8633332491,1
 .3492874416,0.0688710201\C,6.6151197582,0.1610200359,0.0687964176\C,5.
 979915682,-1.1237750395,0.0682906517\C,4.5158912125,-1.2213494928,0.06
 75438925\C,3.6950913969,-2.448555249,0.0668623561\C,4.5808477853,-3.57
 21280933,0.0666366323\C,6.012355261,-3.5495806957,0.0672440907\C,6.721
 7177734,-2.3503034654,0.0681509594\N,7.0904618195,3.711060542,0.069919
 5624\C,6.5371960093,2.6464762107,0.0694679377\H,3.8433863928,2.2218284
 874,0.06834326\H,7.7135433374,0.2227442997,0.0690854352\H,4.1456336904
 ,-4.5886835161,0.0659050055\H,6.5785408964,-4.4954553846,0.0670584604\
 H,7.8184572435,-2.3253374155,0.0687219831\\Version=ES64L-G09RevD.01\St
 ate=1-A\HF=-562.507053\RMSD=6.999e-09\RMSF=3.046e-05\Dipole=1.7142166,
 0.4864075,0.0007251\Quadrupole=-6.5132586,-9.8042583,16.3175169,-11.15
 90623,-0.0116847,-0.0116208\PG=C01 [X(C12H5N2)]\\@


 IT IS IMPOSSIBLE TO MEDITATE ON TIME AND THE MYSTERY 
 OF NATURE WITHOUT AN OVERWHELMING EMOTION AT THE
 LIMITATIONS OF HUMAN INTELLIGENCE.

                                         -- ALFRED NORTH WHITEHEAD
 Job cpu time:       0 days  0 hours  7 minutes 15.8 seconds.
 File lengths (MBytes):  RWF=      5 Int=      0 D2E=      0 Chk=      2 Scr=      1
 Normal termination of Gaussian 09 at Tue Jun 15 11:22:11 2021.
