 Entering Gaussian System, Link 0=/usr/local/apps//g09/g09
 Input=21.com
 Output=21.out
 Initial command:
 /usr/local/apps//g09/l1.exe "/tmp/bnp.472620.sequoia/Gau-17227.inp" -scrdir="/tmp/bnp.472620.sequoia/"
 Entering Link 1 = /usr/local/apps//g09/l1.exe PID=     17228.
  
 Copyright (c) 1988,1990,1992,1993,1995,1998,2003,2009,2013,
            Gaussian, Inc.  All Rights Reserved.
  
 This is part of the Gaussian(R) 09 program.  It is based on
 the Gaussian(R) 03 system (copyright 2003, Gaussian, Inc.),
 the Gaussian(R) 98 system (copyright 1998, Gaussian, Inc.),
 the Gaussian(R) 94 system (copyright 1995, Gaussian, Inc.),
 the Gaussian 92(TM) system (copyright 1992, Gaussian, Inc.),
 the Gaussian 90(TM) system (copyright 1990, Gaussian, Inc.),
 the Gaussian 88(TM) system (copyright 1988, Gaussian, Inc.),
 the Gaussian 86(TM) system (copyright 1986, Carnegie Mellon
 University), and the Gaussian 82(TM) system (copyright 1983,
 Carnegie Mellon University). Gaussian is a federally registered
 trademark of Gaussian, Inc.
  
 This software contains proprietary and confidential information,
 including trade secrets, belonging to Gaussian, Inc.
  
 This software is provided under written license and may be
 used, copied, transmitted, or stored only in accord with that
 written license.
  
 The following legend is applicable only to US Government
 contracts under FAR:
  
                    RESTRICTED RIGHTS LEGEND
  
 Use, reproduction and disclosure by the US Government is
 subject to restrictions as set forth in subparagraphs (a)
 and (c) of the Commercial Computer Software - Restricted
 Rights clause in FAR 52.227-19.
  
 Gaussian, Inc.
 340 Quinnipiac St., Bldg. 40, Wallingford CT 06492
  
  
 ---------------------------------------------------------------
 Warning -- This program may not be used in any manner that
 competes with the business of Gaussian, Inc. or will provide
 assistance to any competitor of Gaussian, Inc.  The licensee
 of this program is prohibited from giving any competitor of
 Gaussian, Inc. access to this program.  By using this program,
 the user acknowledges that Gaussian, Inc. is engaged in the
 business of creating and licensing software in the field of
 computational chemistry and represents and warrants to the
 licensee that it is not a competitor of Gaussian, Inc. and that
 it will not use this program in any manner prohibited above.
 ---------------------------------------------------------------
  

 Cite this work as:
 Gaussian 09, Revision D.01,
 M. J. Frisch, G. W. Trucks, H. B. Schlegel, G. E. Scuseria, 
 M. A. Robb, J. R. Cheeseman, G. Scalmani, V. Barone, B. Mennucci, 
 G. A. Petersson, H. Nakatsuji, M. Caricato, X. Li, H. P. Hratchian, 
 A. F. Izmaylov, J. Bloino, G. Zheng, J. L. Sonnenberg, M. Hada, 
 M. Ehara, K. Toyota, R. Fukuda, J. Hasegawa, M. Ishida, T. Nakajima, 
 Y. Honda, O. Kitao, H. Nakai, T. Vreven, J. A. Montgomery, Jr., 
 J. E. Peralta, F. Ogliaro, M. Bearpark, J. J. Heyd, E. Brothers, 
 K. N. Kudin, V. N. Staroverov, T. Keith, R. Kobayashi, J. Normand, 
 K. Raghavachari, A. Rendell, J. C. Burant, S. S. Iyengar, J. Tomasi, 
 M. Cossi, N. Rega, J. M. Millam, M. Klene, J. E. Knox, J. B. Cross, 
 V. Bakken, C. Adamo, J. Jaramillo, R. Gomperts, R. E. Stratmann, 
 O. Yazyev, A. J. Austin, R. Cammi, C. Pomelli, J. W. Ochterski, 
 R. L. Martin, K. Morokuma, V. G. Zakrzewski, G. A. Voth, 
 P. Salvador, J. J. Dannenberg, S. Dapprich, A. D. Daniels, 
 O. Farkas, J. B. Foresman, J. V. Ortiz, J. Cioslowski, 
 and D. J. Fox, Gaussian, Inc., Wallingford CT, 2013.
 
 ******************************************
 Gaussian 09:  ES64L-G09RevD.01 24-Apr-2013
                15-Jun-2021 
 ******************************************
 -------------------
 #N B3LYP/STO-3G OPT
 -------------------
 1/14=-1,18=20,19=15,26=3,38=1/1,3;
 2/9=110,12=2,17=6,18=5,40=1/2;
 3/6=3,11=2,16=1,25=1,30=1,71=1,74=-5/1,2,3;
 4//1;
 5/5=2,38=5/2;
 6/7=2,8=2,9=2,10=2,28=1/1;
 7//1,2,3,16;
 1/14=-1,18=20,19=15,26=3/3(2);
 2/9=110/2;
 99//99;
 2/9=110/2;
 3/6=3,11=2,16=1,25=1,30=1,71=1,74=-5/1,2,3;
 4/5=5,16=3,69=1/1;
 5/5=2,38=5/2;
 7//1,2,3,16;
 1/14=-1,18=20,19=15,26=3/3(-5);
 2/9=110/2;
 6/7=2,8=2,9=2,10=2,19=2,28=1/1;
 99/9=1/99;
 -----
 2Naph
 -----
 Symbolic Z-matrix:
 Charge = -1 Multiplicity = 1
 N                     1.19362  -0.12248   0.04309 
 C                     2.35191  -0.14045   0.04328 
 C                     4.50917  -1.34734   0.04316 
 C                     3.78951  -0.13997   0.04343 
 C                     4.47603   1.07419   0.04348 
 C                     5.86905   1.08264   0.04284 
 C                     6.59924  -0.11384   0.04273 
 C                     5.93184  -1.36722   0.04315 
 C                     6.73702  -2.54222   0.04251 
 C                     8.13285  -2.45109   0.04094 
 C                     8.76432  -1.21512   0.04048 
 C                     7.99921  -0.05419   0.04135 
 N                     5.77862  -4.95358   0.04139 
 C                     6.19448  -3.86987   0.04228 
 H                     3.94895  -2.28343   0.04215 
 H                     3.94074   2.02244   0.04373 
 H                     6.38567   2.04212   0.04186 
 H                     9.84897  -1.15459   0.03933 
 H                     8.50965   0.90799   0.04034 
 

 GradGradGradGradGradGradGradGradGradGradGradGradGradGradGradGradGradGrad
 Berny optimization.
 Initialization pass.
                           ----------------------------
                           !    Initial Parameters    !
                           ! (Angstroms and Degrees)  !
 --------------------------                            --------------------------
 ! Name  Definition              Value          Derivative Info.                !
 --------------------------------------------------------------------------------
 ! R1    R(1,2)                  1.1584         estimate D2E/DX2                !
 ! R2    R(2,4)                  1.4376         estimate D2E/DX2                !
 ! R3    R(3,4)                  1.4056         estimate D2E/DX2                !
 ! R4    R(3,8)                  1.4228         estimate D2E/DX2                !
 ! R5    R(3,15)                 1.0909         estimate D2E/DX2                !
 ! R6    R(4,5)                  1.3948         estimate D2E/DX2                !
 ! R7    R(5,6)                  1.393          estimate D2E/DX2                !
 ! R8    R(5,16)                 1.0889         estimate D2E/DX2                !
 ! R9    R(6,7)                  1.4017         estimate D2E/DX2                !
 ! R10   R(6,17)                 1.0897         estimate D2E/DX2                !
 ! R11   R(7,8)                  1.42           estimate D2E/DX2                !
 ! R12   R(7,12)                 1.4012         estimate D2E/DX2                !
 ! R13   R(8,9)                  1.4244         estimate D2E/DX2                !
 ! R14   R(9,10)                 1.3988         estimate D2E/DX2                !
 ! R15   R(9,14)                 1.4342         estimate D2E/DX2                !
 ! R16   R(10,11)                1.3879         estimate D2E/DX2                !
 ! R17   R(11,12)                1.3904         estimate D2E/DX2                !
 ! R18   R(11,18)                1.0863         estimate D2E/DX2                !
 ! R19   R(12,19)                1.0892         estimate D2E/DX2                !
 ! R20   R(13,14)                1.1608         estimate D2E/DX2                !
 ! A1    A(4,3,8)              121.5979         estimate D2E/DX2                !
 ! A2    A(4,3,15)             118.3035         estimate D2E/DX2                !
 ! A3    A(8,3,15)             120.0986         estimate D2E/DX2                !
 ! A4    A(2,4,3)              120.7782         estimate D2E/DX2                !
 ! A5    A(2,4,5)              119.5042         estimate D2E/DX2                !
 ! A6    A(3,4,5)              119.7177         estimate D2E/DX2                !
 ! A7    A(4,5,6)              119.8326         estimate D2E/DX2                !
 ! A8    A(4,5,16)             121.0701         estimate D2E/DX2                !
 ! A9    A(6,5,16)             119.0973         estimate D2E/DX2                !
 ! A10   A(5,6,7)              121.0474         estimate D2E/DX2                !
 ! A11   A(5,6,17)             118.6472         estimate D2E/DX2                !
 ! A12   A(7,6,17)             120.3053         estimate D2E/DX2                !
 ! A13   A(6,7,8)              120.5706         estimate D2E/DX2                !
 ! A14   A(6,7,12)             118.9552         estimate D2E/DX2                !
 ! A15   A(8,7,12)             120.4742         estimate D2E/DX2                !
 ! A16   A(3,8,7)              117.2338         estimate D2E/DX2                !
 ! A17   A(3,8,9)              125.2218         estimate D2E/DX2                !
 ! A18   A(7,8,9)              117.5443         estimate D2E/DX2                !
 ! A19   A(8,9,10)             120.6859         estimate D2E/DX2                !
 ! A20   A(8,9,14)             123.3515         estimate D2E/DX2                !
 ! A21   A(10,9,14)            115.9626         estimate D2E/DX2                !
 ! A22   A(9,10,11)            120.7984         estimate D2E/DX2                !
 ! A23   A(10,11,12)           119.5502         estimate D2E/DX2                !
 ! A24   A(10,11,18)           120.2571         estimate D2E/DX2                !
 ! A25   A(12,11,18)           120.1927         estimate D2E/DX2                !
 ! A26   A(7,12,11)            120.9471         estimate D2E/DX2                !
 ! A27   A(7,12,19)            120.3859         estimate D2E/DX2                !
 ! A28   A(11,12,19)           118.667          estimate D2E/DX2                !
 ! A29   L(1,2,4,16,-1)        179.092          estimate D2E/DX2                !
 ! A30   L(9,14,13,1,-1)       181.2336         estimate D2E/DX2                !
 ! A31   L(1,2,4,16,-2)        180.0043         estimate D2E/DX2                !
 ! A32   L(9,14,13,1,-2)       179.964          estimate D2E/DX2                !
 ! D1    D(8,3,4,2)            179.9928         estimate D2E/DX2                !
 ! D2    D(8,3,4,5)              0.0102         estimate D2E/DX2                !
 ! D3    D(15,3,4,2)             0.0408         estimate D2E/DX2                !
 ! D4    D(15,3,4,5)          -179.9418         estimate D2E/DX2                !
 ! D5    D(4,3,8,7)             -0.0315         estimate D2E/DX2                !
 ! D6    D(4,3,8,9)           -179.9814         estimate D2E/DX2                !
 ! D7    D(15,3,8,7)           179.9196         estimate D2E/DX2                !
 ! D8    D(15,3,8,9)            -0.0303         estimate D2E/DX2                !
 ! D9    D(2,4,5,6)           -179.9628         estimate D2E/DX2                !
 ! D10   D(2,4,5,16)             0.0198         estimate D2E/DX2                !
 ! D11   D(3,4,5,6)              0.02           estimate D2E/DX2                !
 ! D12   D(3,4,5,16)          -179.9974         estimate D2E/DX2                !
 ! D13   D(4,5,6,7)             -0.0281         estimate D2E/DX2                !
 ! D14   D(4,5,6,17)           179.9382         estimate D2E/DX2                !
 ! D15   D(16,5,6,7)           179.989          estimate D2E/DX2                !
 ! D16   D(16,5,6,17)           -0.0447         estimate D2E/DX2                !
 ! D17   D(5,6,7,8)              0.0057         estimate D2E/DX2                !
 ! D18   D(5,6,7,12)           179.966          estimate D2E/DX2                !
 ! D19   D(17,6,7,8)          -179.96           estimate D2E/DX2                !
 ! D20   D(17,6,7,12)            0.0003         estimate D2E/DX2                !
 ! D21   D(6,7,8,3)              0.0235         estimate D2E/DX2                !
 ! D22   D(6,7,8,9)            179.9774         estimate D2E/DX2                !
 ! D23   D(12,7,8,3)          -179.9362         estimate D2E/DX2                !
 ! D24   D(12,7,8,9)             0.0176         estimate D2E/DX2                !
 ! D25   D(6,7,12,11)         -179.9659         estimate D2E/DX2                !
 ! D26   D(6,7,12,19)           -0.0024         estimate D2E/DX2                !
 ! D27   D(8,7,12,11)           -0.0056         estimate D2E/DX2                !
 ! D28   D(8,7,12,19)          179.958          estimate D2E/DX2                !
 ! D29   D(3,8,9,10)           179.9228         estimate D2E/DX2                !
 ! D30   D(3,8,9,14)            -0.0236         estimate D2E/DX2                !
 ! D31   D(7,8,9,10)            -0.027          estimate D2E/DX2                !
 ! D32   D(7,8,9,14)          -179.9734         estimate D2E/DX2                !
 ! D33   D(8,9,10,11)            0.0245         estimate D2E/DX2                !
 ! D34   D(14,9,10,11)         179.9747         estimate D2E/DX2                !
 ! D35   D(9,10,11,12)          -0.0116         estimate D2E/DX2                !
 ! D36   D(9,10,11,18)         179.9956         estimate D2E/DX2                !
 ! D37   D(10,11,12,7)           0.0021         estimate D2E/DX2                !
 ! D38   D(10,11,12,19)       -179.962          estimate D2E/DX2                !
 ! D39   D(18,11,12,7)         179.995          estimate D2E/DX2                !
 ! D40   D(18,11,12,19)          0.0308         estimate D2E/DX2                !
 --------------------------------------------------------------------------------
 Trust Radius=3.00D-01 FncErr=1.00D-07 GrdErr=1.00D-06
 Number of steps in this run=    102 maximum allowed number of steps=    114.
 GradGradGradGradGradGradGradGradGradGradGradGradGradGradGradGradGradGrad

                          Input orientation:                          
 ---------------------------------------------------------------------
 Center     Atomic      Atomic             Coordinates (Angstroms)
 Number     Number       Type             X           Y           Z
 ---------------------------------------------------------------------
      1          7           0        1.193620   -0.122480    0.043090
      2          6           0        2.351910   -0.140450    0.043280
      3          6           0        4.509170   -1.347340    0.043160
      4          6           0        3.789510   -0.139970    0.043430
      5          6           0        4.476030    1.074190    0.043480
      6          6           0        5.869050    1.082640    0.042840
      7          6           0        6.599240   -0.113840    0.042730
      8          6           0        5.931840   -1.367220    0.043150
      9          6           0        6.737020   -2.542220    0.042510
     10          6           0        8.132850   -2.451090    0.040940
     11          6           0        8.764320   -1.215120    0.040480
     12          6           0        7.999210   -0.054190    0.041350
     13          7           0        5.778620   -4.953580    0.041390
     14          6           0        6.194480   -3.869870    0.042280
     15          1           0        3.948950   -2.283430    0.042150
     16          1           0        3.940740    2.022440    0.043730
     17          1           0        6.385670    2.042120    0.041860
     18          1           0        9.848970   -1.154590    0.039330
     19          1           0        8.509650    0.907990    0.040340
 ---------------------------------------------------------------------
                    Distance matrix (angstroms):
                    1          2          3          4          5
     1  N    0.000000
     2  C    1.158429   0.000000
     3  C    3.534566   2.471913   0.000000
     4  C    2.595949   1.437600   1.405579   0.000000
     5  C    3.493742   2.446883   2.421757   1.394810   0.000000
     6  C    4.828246   3.723738   2.784614   2.412315   1.393046
     7  C    5.405627   4.247413   2.426915   2.809852   2.432989
     8  C    4.898990   3.784292   1.422809   2.468951   2.842510
     9  C    6.048506   4.999769   2.528053   3.802449   4.265032
    10  C    7.319518   6.225619   3.788050   4.919948   5.079364
    11  C    7.649142   6.501840   4.257205   5.089665   4.861109
    12  C    6.805933   5.647959   3.721911   4.210574   3.699465
    13  N    6.660462   5.908347   3.823150   5.208397   6.166908
    14  C    6.249123   5.354803   3.033715   4.438022   5.234195
    15  H    3.501649   2.672621   1.090923   2.149382   3.398739
    16  H    3.485305   2.683743   3.417386   2.167692   1.088905
    17  H    5.625200   4.586375   3.874235   3.391396   2.140938
    18  H    8.716671   7.565342   5.343279   6.143820   5.816869
    19  H    7.388245   6.246359   4.592424   4.835075   4.037044
                    6          7          8          9         10
     6  C    0.000000
     7  C    1.401692   0.000000
     8  C    2.450665   1.419994   0.000000
     9  C    3.727329   2.432286   1.424409   0.000000
    10  C    4.196670   2.795479   2.453411   1.398803   0.000000
    11  C    3.696254   2.429073   2.836562   2.423044   1.387940
    12  C    2.414532   1.401241   2.449096   2.789878   2.400623
    13  N    6.036898   4.908819   3.589632   2.594839   3.435819
    14  C    4.963191   3.777776   2.516394   1.434226   2.402128
    15  H    3.875205   3.425078   2.184329   2.800055   4.187258
    16  H    2.145135   3.410471   3.931192   5.353065   6.130764
    17  H    1.089724   2.166513   3.439413   4.597784   4.820952
    18  H    4.565630   3.412318   3.922899   3.407310   2.150810
    19  H    2.646371   2.166520   3.438269   3.878939   3.380147
                   11         12         13         14         15
    11  C    0.000000
    12  C    1.390379   0.000000
    13  N    4.784401   5.379130   0.000000
    14  C    3.694831   4.220955   1.160762   0.000000
    15  H    4.932451   4.623215   3.236880   2.749399   0.000000
    16  H    5.809366   4.558901   7.214060   6.308618   4.305878
    17  H    4.033310   2.645378   7.021989   5.915081   4.964674
    18  H    1.086338   2.152323   5.567771   4.552807   6.007040
    19  H    2.138329   1.089193   6.466570   5.309234   5.566431
                   16         17         18         19
    16  H    0.000000
    17  H    2.445010   0.000000
    18  H    6.708258   4.713110   0.000000
    19  H    4.702866   2.407809   2.459271   0.000000
 Stoichiometry    C12H5N2(1-)
 Framework group  C1[X(C12H5N2)]
 Deg. of freedom    51
 Full point group                 C1      NOp   1
 Largest Abelian subgroup         C1      NOp   1
 Largest concise Abelian subgroup C1      NOp   1
                         Standard orientation:                         
 ---------------------------------------------------------------------
 Center     Atomic      Atomic             Coordinates (Angstroms)
 Number     Number       Type             X           Y           Z
 ---------------------------------------------------------------------
      1          7           0       -4.367868    1.139747    0.000918
      2          6           0       -3.329351    0.626482    0.000332
      3          6           0       -0.858999    0.714316   -0.000442
      4          6           0       -2.050816   -0.030818   -0.000307
      5          6           0       -1.994930   -1.424508   -0.000430
      6          6           0       -0.759691   -2.068527   -0.000262
      7          6           0        0.436517   -1.337891   -0.000559
      8          6           0        0.415558    0.081948   -0.000918
      9          6           0        1.668656    0.759213   -0.000708
     10          6           0        2.868616    0.040365    0.000400
     11          6           0        2.865570   -1.347571    0.000809
     12          6           0        1.654543   -2.030629    0.000353
     13          7           0        1.917960    3.342048    0.000419
     14          6           0        1.792697    2.188065   -0.000469
     15          1           0       -0.929597    1.802951    0.000635
     16          1           0       -2.904352   -2.023395   -0.000372
     17          1           0       -0.738563   -3.158046    0.000669
     18          1           0        3.802715   -1.897015    0.001598
     19          1           0        1.668941   -3.119726    0.001317
 ---------------------------------------------------------------------
 Rotational constants (GHZ):      1.1261301      0.5618221      0.3748239
 Standard basis: STO-3G (5D, 7F)
 There are    75 symmetry adapted cartesian basis functions of A   symmetry.
 There are    75 symmetry adapted basis functions of A   symmetry.
    75 basis functions,   225 primitive gaussians,    75 cartesian basis functions
    46 alpha electrons       46 beta electrons
       nuclear repulsion energy       706.9205902290 Hartrees.
 NAtoms=   19 NActive=   19 NUniq=   19 SFac= 1.00D+00 NAtFMM=   60 NAOKFM=F Big=F
 Integral buffers will be    131072 words long.
 Raffenetti 2 integral format.
 Two-electron integral symmetry is turned on.
 One-electron integrals computed using PRISM.
 NBasis=    75 RedAO= T EigKep=  1.54D-01  NBF=    75
 NBsUse=    75 1.00D-06 EigRej= -1.00D+00 NBFU=    75
 ExpMin= 1.69D-01 ExpMax= 9.91D+01 ExpMxC= 9.91D+01 IAcc=1 IRadAn=         1 AccDes= 0.00D+00
 Harris functional with IExCor=  402 and IRadAn=       1 diagonalized for initial guess.
 HarFok:  IExCor=  402 AccDes= 0.00D+00 IRadAn=         1 IDoV= 1 UseB2=F ITyADJ=14
 ICtDFT=  3500011 ScaDFX=  1.000000  1.000000  1.000000  1.000000
 FoFCou: FMM=F IPFlag=           0 FMFlag=      100000 FMFlg1=           0
         NFxFlg=           0 DoJE=T BraDBF=F KetDBF=T FulRan=T
         wScrn=  0.000000 ICntrl=     500 IOpCl=  0 I1Cent=   200000004 NGrid=           0
         NMat0=    1 NMatS0=      1 NMatT0=    0 NMatD0=    1 NMtDS0=    0 NMtDT0=    0
 Petite list used in FoFCou.
 Keep R1 ints in memory in canonical form, NReq=4993994.
 Requested convergence on RMS density matrix=1.00D-08 within 128 cycles.
 Requested convergence on MAX density matrix=1.00D-06.
 Requested convergence on             energy=1.00D-06.
 No special actions if energy rises.
 Integral accuracy reduced to 1.0D-05 until final iterations.
 EnCoef did     7 forward-backward iterations
 EnCoef did   100 forward-backward iterations
 Rare condition: small coef for last iteration:  0.000D+00
 Problem detected with inexpensive integrals.
 Switching to full accuracy and repeating last cycle.
 Rare condition: small coef for last iteration:  0.000D+00
 Rare condition: small coef for last iteration:  0.000D+00
 SCF Done:  E(RB3LYP) =  -562.484741473     A.U. after   35 cycles
            NFock= 35  Conv=0.25D-08     -V/T= 2.0129

 **********************************************************************

            Population analysis using the SCF density.

 **********************************************************************

 Orbital symmetries:
       Occupied  (A) (A) (A) (A) (A) (A) (A) (A) (A) (A) (A) (A)
                 (A) (A) (A) (A) (A) (A) (A) (A) (A) (A) (A) (A)
                 (A) (A) (A) (A) (A) (A) (A) (A) (A) (A) (A) (A)
                 (A) (A) (A) (A) (A) (A) (A) (A) (A) (A)
       Virtual   (A) (A) (A) (A) (A) (A) (A) (A) (A) (A) (A) (A)
                 (A) (A) (A) (A) (A) (A) (A) (A) (A) (A) (A) (A)
                 (A) (A) (A) (A) (A)
 The electronic state is 1-A.
 Alpha  occ. eigenvalues --  -14.00603 -13.93255  -9.91514  -9.91140  -9.88121
 Alpha  occ. eigenvalues --   -9.88089  -9.87809  -9.87263  -9.87025  -9.84554
 Alpha  occ. eigenvalues --   -9.84284  -9.82737  -9.81692  -9.65014  -0.75657
 Alpha  occ. eigenvalues --   -0.69751  -0.68998  -0.63225  -0.59259  -0.55299
 Alpha  occ. eigenvalues --   -0.52446  -0.45794  -0.43475  -0.40580  -0.36519
 Alpha  occ. eigenvalues --   -0.33800  -0.29421  -0.28050  -0.25474  -0.24892
 Alpha  occ. eigenvalues --   -0.22960  -0.22512  -0.19535  -0.18408  -0.17699
 Alpha  occ. eigenvalues --   -0.16173  -0.15685  -0.14313  -0.14126  -0.11091
 Alpha  occ. eigenvalues --   -0.10490  -0.08848  -0.08054  -0.03172   0.01212
 Alpha  occ. eigenvalues --    0.14774
 Alpha virt. eigenvalues --    0.16523   0.21566   0.25205   0.26328   0.31517
 Alpha virt. eigenvalues --    0.32588   0.36160   0.39365   0.44189   0.49101
 Alpha virt. eigenvalues --    0.49657   0.52302   0.55114   0.57200   0.58746
 Alpha virt. eigenvalues --    0.60674   0.62836   0.64970   0.70296   0.71148
 Alpha virt. eigenvalues --    0.74265   0.78235   0.80688   0.86034   0.88529
 Alpha virt. eigenvalues --    0.97810   0.98865   1.13306   1.19640
          Condensed to atoms (all electrons):
               1          2          3          4          5          6
     1  N    6.567833   0.689706  -0.000138  -0.011312  -0.000155  -0.000001
     2  C    0.689706   4.889304  -0.029411   0.425744  -0.032526   0.001056
     3  C   -0.000138  -0.029411   4.837583   0.503419  -0.031914  -0.012057
     4  C   -0.011312   0.425744   0.503419   4.754078   0.482338  -0.030792
     5  C   -0.000155  -0.032526  -0.031914   0.482338   4.832653   0.520776
     6  C   -0.000001   0.001056  -0.012057  -0.030792   0.520776   4.823684
     7  C    0.000000   0.000012  -0.030071  -0.010317  -0.029999   0.484801
     8  C   -0.000001   0.000888   0.473014  -0.026372  -0.009381  -0.027678
     9  C    0.000000  -0.000005  -0.025561   0.000721   0.000036   0.000935
    10  C    0.000000   0.000000   0.000897  -0.000011   0.000000   0.000016
    11  C    0.000000   0.000000   0.000037   0.000000  -0.000011   0.000978
    12  C    0.000000   0.000000   0.001031   0.000039   0.001035  -0.035740
    13  N    0.000000   0.000000  -0.000050   0.000000   0.000000   0.000000
    14  C    0.000000   0.000000  -0.002928   0.000000   0.000000  -0.000008
    15  H    0.000067  -0.003769   0.388587  -0.027204   0.001409   0.000053
    16  H    0.000060  -0.003736   0.001393  -0.025410   0.390994  -0.026099
    17  H    0.000000  -0.000021   0.000038   0.001516  -0.027290   0.390428
    18  H    0.000000   0.000000   0.000002   0.000000   0.000000  -0.000025
    19  H    0.000000   0.000000  -0.000017  -0.000001   0.000036  -0.005027
               7          8          9         10         11         12
     1  N    0.000000  -0.000001   0.000000   0.000000   0.000000   0.000000
     2  C    0.000012   0.000888  -0.000005   0.000000   0.000000   0.000000
     3  C   -0.030071   0.473014  -0.025561   0.000897   0.000037   0.001031
     4  C   -0.010317  -0.026372   0.000721  -0.000011   0.000000   0.000039
     5  C   -0.029999  -0.009381   0.000036   0.000000  -0.000011   0.001035
     6  C    0.484801  -0.027678   0.000935   0.000016   0.000978  -0.035740
     7  C    4.784642   0.468242  -0.033808  -0.012210  -0.030639   0.482948
     8  C    0.468242   4.807229   0.451963  -0.028393  -0.011023  -0.028220
     9  C   -0.033808   0.451963   4.836928   0.481698  -0.028543  -0.013560
    10  C   -0.012210  -0.028393   0.481698   5.422075   0.461354  -0.030218
    11  C   -0.030639  -0.011023  -0.028543   0.461354   4.860076   0.506047
    12  C    0.482948  -0.028220  -0.013560  -0.030218   0.506047   4.871703
    13  N   -0.000001   0.000112  -0.011465  -0.000330  -0.000002   0.000000
    14  C    0.000836  -0.036575   0.421672  -0.038147   0.001411  -0.000014
    15  H    0.001398  -0.024509  -0.003197   0.000021   0.000000  -0.000020
    16  H    0.001476   0.000033   0.000001   0.000000   0.000000  -0.000022
    17  H   -0.025117   0.001362  -0.000020   0.000000   0.000035  -0.004732
    18  H    0.001399  -0.000061   0.002116  -0.036382   0.385797  -0.034746
    19  H   -0.027302   0.001329   0.000105   0.001771  -0.027002   0.381679
              13         14         15         16         17         18
     1  N    0.000000   0.000000   0.000067   0.000060   0.000000   0.000000
     2  C    0.000000   0.000000  -0.003769  -0.003736  -0.000021   0.000000
     3  C   -0.000050  -0.002928   0.388587   0.001393   0.000038   0.000002
     4  C    0.000000   0.000000  -0.027204  -0.025410   0.001516   0.000000
     5  C    0.000000   0.000000   0.001409   0.390994  -0.027290   0.000000
     6  C    0.000000  -0.000008   0.000053  -0.026099   0.390428  -0.000025
     7  C   -0.000001   0.000836   0.001398   0.001476  -0.025117   0.001399
     8  C    0.000112  -0.036575  -0.024509   0.000033   0.001362  -0.000061
     9  C   -0.011465   0.421672  -0.003197   0.000001  -0.000020   0.002116
    10  C   -0.000330  -0.038147   0.000021   0.000000   0.000000  -0.036382
    11  C   -0.000002   0.001411   0.000000   0.000000   0.000035   0.385797
    12  C    0.000000  -0.000014  -0.000020  -0.000022  -0.004732  -0.034746
    13  N    6.616352   0.684689  -0.000054   0.000000   0.000000   0.000000
    14  C    0.684689   4.913437   0.001446   0.000000   0.000000  -0.000006
    15  H   -0.000054   0.001446   0.587564  -0.000038   0.000002   0.000000
    16  H    0.000000   0.000000  -0.000038   0.604894  -0.004203   0.000000
    17  H    0.000000   0.000000   0.000002  -0.004203   0.607510  -0.000002
    18  H    0.000000  -0.000006   0.000000   0.000000  -0.000002   0.653851
    19  H    0.000000   0.000002   0.000001  -0.000002   0.000943  -0.002976
              19
     1  N    0.000000
     2  C    0.000000
     3  C   -0.000017
     4  C   -0.000001
     5  C    0.000036
     6  C   -0.005027
     7  C   -0.027302
     8  C    0.001329
     9  C    0.000105
    10  C    0.001771
    11  C   -0.027002
    12  C    0.381679
    13  N    0.000000
    14  C    0.000002
    15  H    0.000001
    16  H   -0.000002
    17  H    0.000943
    18  H   -0.002976
    19  H    0.637857
 Mulliken charges:
               1
     1  N   -0.246059
     2  C    0.062758
     3  C   -0.073855
     4  C   -0.036436
     5  C   -0.097999
     6  C   -0.085301
     7  C   -0.026289
     8  C   -0.011958
     9  C   -0.080017
    10  C   -0.222141
    11  C   -0.118517
    12  C   -0.097211
    13  N   -0.289251
    14  C    0.054186
    15  H    0.078242
    16  H    0.060659
    17  H    0.059551
    18  H    0.031033
    19  H    0.038604
 Sum of Mulliken charges =  -1.00000
 Mulliken charges with hydrogens summed into heavy atoms:
               1
     1  N   -0.246059
     2  C    0.062758
     3  C    0.004387
     4  C   -0.036436
     5  C   -0.037339
     6  C   -0.025750
     7  C   -0.026289
     8  C   -0.011958
     9  C   -0.080017
    10  C   -0.222141
    11  C   -0.087484
    12  C   -0.058607
    13  N   -0.289251
    14  C    0.054186
 Electronic spatial extent (au):  <R**2>=           2726.9355
 Charge=             -1.0000 electrons
 Dipole moment (field-independent basis, Debye):
    X=             -4.0925    Y=             -5.4784    Z=             -0.0020  Tot=              6.8383
 Quadrupole moment (field-independent basis, Debye-Ang):
   XX=           -124.2830   YY=            -93.3435   ZZ=            -73.8102
   XY=             -3.2692   XZ=             -0.0005   YZ=             -0.0070
 Traceless Quadrupole moment (field-independent basis, Debye-Ang):
   XX=            -27.1375   YY=              3.8021   ZZ=             23.3354
   XY=             -3.2692   XZ=             -0.0005   YZ=             -0.0070
 Octapole moment (field-independent basis, Debye-Ang**2):
  XXX=             27.9043  YYY=            -67.5440  ZZZ=              0.0042  XYY=            -34.2981
  XXY=            -56.9616  XXZ=             -0.0477  XZZ=             -2.0975  YZZ=              4.8478
  YYZ=             -0.0059  XYZ=             -0.0014
 Hexadecapole moment (field-independent basis, Debye-Ang**3):
 XXXX=          -3084.0922 YYYY=          -1416.8675 ZZZZ=            -57.9755 XXXY=            125.9679
 XXXZ=              0.0808 YYYX=           -122.8944 YYYZ=             -0.0750 ZZZX=             -0.0110
 ZZZY=              0.0056 XXYY=           -685.4441 XXZZ=           -382.2137 YYZZ=           -208.1058
 XXYZ=             -0.0661 YYXZ=             -0.0168 ZZXY=              1.0557
 N-N= 7.069205902290D+02 E-N=-2.735958374616D+03  KE= 5.553308919681D+02
 Calling FoFJK, ICntrl=      2127 FMM=F ISym2X=0 I1Cent= 0 IOpClX= 0 NMat=1 NMatS=1 NMatT=0.
 ***** Axes restored to original set *****
 -------------------------------------------------------------------
 Center     Atomic                   Forces (Hartrees/Bohr)
 Number     Number              X              Y              Z
 -------------------------------------------------------------------
      1        7          -0.108729508    0.001263596   -0.000015940
      2        6           0.087479987   -0.002435467    0.000016728
      3        6          -0.011235929    0.003074939   -0.000023321
      4        6          -0.000458866   -0.030120277    0.000010038
      5        6           0.027181618    0.034786928    0.000002158
      6        6          -0.032493852    0.017634741   -0.000000592
      7        6           0.004322105    0.017077092   -0.000021371
      8        6          -0.033356559   -0.014178893    0.000013841
      9        6           0.032383464    0.029121731   -0.000035922
     10        6           0.021309498   -0.090034974   -0.000004246
     11        6          -0.029741875    0.033965690    0.000049156
     12        6           0.052174063   -0.000321161   -0.000048815
     13        7          -0.035439426   -0.098874831   -0.000058168
     14        6           0.015511987    0.077430345    0.000060823
     15        1          -0.000869119   -0.007200306    0.000038551
     16        1          -0.005940963    0.003924431   -0.000008689
     17        1           0.005466481    0.004315904    0.000027870
     18        1           0.015958460    0.006618610   -0.000031303
     19        1          -0.003521567    0.013951902    0.000029203
 -------------------------------------------------------------------
 Cartesian Forces:  Max     0.108729508 RMS     0.032065887

 GradGradGradGradGradGradGradGradGradGradGradGradGradGradGradGradGradGrad
 Berny optimization.
 FormGI is forming the generalized inverse of G from B-inverse, IUseBI=4.
 Internal  Forces:  Max     0.108736025 RMS     0.020868441
 Search for a local minimum.
 Step number   1 out of a maximum of  102
 All quantities printed in internal units (Hartrees-Bohrs-Radians)
 Mixed Optimization -- RFO/linear search
 Second derivative matrix not updated -- first step.
 ITU=  0
     Eigenvalues ---    0.01591   0.01591   0.01822   0.01838   0.01872
     Eigenvalues ---    0.01898   0.01944   0.02025   0.02059   0.02082
     Eigenvalues ---    0.02119   0.02138   0.02139   0.02169   0.02191
     Eigenvalues ---    0.02227   0.04856   0.04856   0.16000   0.16000
     Eigenvalues ---    0.16000   0.16000   0.16000   0.22317   0.22563
     Eigenvalues ---    0.23517   0.24361   0.24681   0.25000   0.25000
     Eigenvalues ---    0.25000   0.34706   0.34845   0.34906   0.34940
     Eigenvalues ---    0.35239   0.38209   0.39916   0.39984   0.40246
     Eigenvalues ---    0.40388   0.42977   0.43561   0.45049   0.45262
     Eigenvalues ---    0.45630   0.45983   0.46433   0.47253   1.27297
     Eigenvalues ---    1.28827
 RFO step:  Lambda=-5.87119347D-02 EMin= 1.59137865D-02
 Linear search not attempted -- first point.
 Maximum step size (   0.300) exceeded in Quadratic search.
    -- Step size scaled by   0.856
 Iteration  1 RMS(Cart)=  0.05062306 RMS(Int)=  0.00105362
 Iteration  2 RMS(Cart)=  0.00183949 RMS(Int)=  0.00021554
 Iteration  3 RMS(Cart)=  0.00000131 RMS(Int)=  0.00021554
 Iteration  4 RMS(Cart)=  0.00000000 RMS(Int)=  0.00021554
 Variable       Old X    -DE/DX   Delta X   Delta X   Delta X     New X
                                 (Linear)    (Quad)   (Total)
    R1        2.18911   0.10874   0.00000   0.06909   0.06909   2.25820
    R2        2.71667   0.02125   0.00000   0.03972   0.03972   2.75639
    R3        2.65616   0.00516   0.00000   0.00811   0.00812   2.66428
    R4        2.68872   0.01309   0.00000   0.02287   0.02284   2.71156
    R5        2.06154   0.00662   0.00000   0.01397   0.01397   2.07552
    R6        2.63581   0.04217   0.00000   0.06879   0.06882   2.70463
    R7        2.63248  -0.00052   0.00000  -0.00037  -0.00035   2.63213
    R8        2.05773   0.00634   0.00000   0.01329   0.01329   2.07102
    R9        2.64881   0.03426   0.00000   0.05786   0.05785   2.70667
   R10        2.05928   0.00639   0.00000   0.01343   0.01343   2.07272
   R11        2.68340   0.03302   0.00000   0.05862   0.05825   2.74166
   R12        2.64796   0.03533   0.00000   0.05877   0.05832   2.70628
   R13        2.69174   0.03279   0.00000   0.05908   0.05921   2.75096
   R14        2.64335   0.01868   0.00000   0.03112   0.03156   2.67492
   R15        2.71029   0.02739   0.00000   0.05067   0.05067   2.76096
   R16        2.62283   0.05752   0.00000   0.09193   0.09224   2.71506
   R17        2.62743   0.01340   0.00000   0.02140   0.02129   2.64872
   R18        2.05288   0.01630   0.00000   0.03394   0.03394   2.08682
   R19        2.05828   0.01067   0.00000   0.02240   0.02240   2.08068
   R20        2.19352   0.10501   0.00000   0.06748   0.06748   2.26101
    A1        2.12228   0.00208   0.00000   0.00402   0.00391   2.12619
    A2        2.06479   0.00200   0.00000   0.00989   0.00995   2.07474
    A3        2.09612  -0.00408   0.00000  -0.01392  -0.01386   2.08226
    A4        2.10798  -0.00311   0.00000  -0.00784  -0.00781   2.10016
    A5        2.08574   0.00098   0.00000   0.00350   0.00353   2.08927
    A6        2.08947   0.00213   0.00000   0.00434   0.00429   2.09376
    A7        2.09147  -0.00150   0.00000  -0.00429  -0.00433   2.08714
    A8        2.11307  -0.00259   0.00000  -0.01092  -0.01090   2.10217
    A9        2.07864   0.00409   0.00000   0.01521   0.01523   2.09387
   A10        2.11268   0.00167   0.00000   0.00682   0.00674   2.11941
   A11        2.07079   0.00201   0.00000   0.00774   0.00778   2.07856
   A12        2.09972  -0.00368   0.00000  -0.01456  -0.01452   2.08521
   A13        2.10435  -0.00536   0.00000  -0.01313  -0.01282   2.09154
   A14        2.07616   0.01622   0.00000   0.04522   0.04576   2.12191
   A15        2.10267  -0.01086   0.00000  -0.03209  -0.03294   2.06973
   A16        2.04612   0.00097   0.00000   0.00222   0.00222   2.04833
   A17        2.18553  -0.00218   0.00000  -0.00521  -0.00496   2.18057
   A18        2.05154   0.00121   0.00000   0.00298   0.00275   2.05428
   A19        2.10637   0.02568   0.00000   0.07068   0.07118   2.17754
   A20        2.15289  -0.02428   0.00000  -0.06706  -0.06731   2.08558
   A21        2.02393  -0.00140   0.00000  -0.00362  -0.00387   2.02006
   A22        2.10833  -0.04224   0.00000  -0.11838  -0.11725   1.99108
   A23        2.08654   0.02903   0.00000   0.08746   0.08758   2.17413
   A24        2.09888  -0.00864   0.00000  -0.02076  -0.02082   2.07806
   A25        2.09776  -0.02038   0.00000  -0.06670  -0.06676   2.03100
   A26        2.11092  -0.00281   0.00000  -0.01065  -0.01133   2.09960
   A27        2.10113  -0.00853   0.00000  -0.03353  -0.03319   2.06794
   A28        2.07113   0.01134   0.00000   0.04418   0.04452   2.11565
   A29        3.12575   0.00093   0.00000   0.01062   0.01062   3.13637
   A30        3.16312   0.00512   0.00000   0.04088   0.04088   3.20401
   A31        3.14167   0.00000   0.00000  -0.00003  -0.00003   3.14164
   A32        3.14096   0.00005   0.00000   0.00037   0.00037   3.14134
    D1        3.14147   0.00001   0.00000   0.00005   0.00005   3.14152
    D2        0.00018   0.00000   0.00000  -0.00004  -0.00004   0.00013
    D3        0.00071  -0.00001   0.00000  -0.00017  -0.00017   0.00055
    D4       -3.14058  -0.00002   0.00000  -0.00026  -0.00026  -3.14084
    D5       -0.00055   0.00001   0.00000   0.00012   0.00012  -0.00043
    D6       -3.14127  -0.00001   0.00000  -0.00011  -0.00010  -3.14137
    D7        3.14019   0.00003   0.00000   0.00035   0.00035   3.14054
    D8       -0.00053   0.00001   0.00000   0.00012   0.00013  -0.00040
    D9       -3.14094  -0.00001   0.00000  -0.00016  -0.00017  -3.14111
   D10        0.00035   0.00000   0.00000  -0.00006  -0.00006   0.00029
   D11        0.00035  -0.00001   0.00000  -0.00007  -0.00007   0.00027
   D12       -3.14155   0.00000   0.00000   0.00003   0.00003  -3.14151
   D13       -0.00049   0.00001   0.00000   0.00012   0.00012  -0.00037
   D14        3.14051   0.00002   0.00000   0.00027   0.00027   3.14079
   D15        3.14140   0.00000   0.00000   0.00002   0.00002   3.14142
   D16       -0.00078   0.00002   0.00000   0.00017   0.00017  -0.00061
   D17        0.00010   0.00000   0.00000  -0.00004  -0.00004   0.00006
   D18        3.14100   0.00001   0.00000   0.00014   0.00014   3.14114
   D19       -3.14090  -0.00002   0.00000  -0.00020  -0.00020  -3.14110
   D20        0.00001   0.00000   0.00000  -0.00002  -0.00002  -0.00001
   D21        0.00041  -0.00001   0.00000  -0.00008  -0.00008   0.00033
   D22        3.14120   0.00001   0.00000   0.00013   0.00012   3.14132
   D23       -3.14048  -0.00003   0.00000  -0.00029  -0.00028  -3.14076
   D24        0.00031  -0.00001   0.00000  -0.00009  -0.00008   0.00022
   D25       -3.14100  -0.00001   0.00000  -0.00011  -0.00012  -3.14111
   D26       -0.00004   0.00001   0.00000   0.00003   0.00002  -0.00002
   D27       -0.00010   0.00001   0.00000   0.00007   0.00007  -0.00003
   D28        3.14086   0.00002   0.00000   0.00022   0.00021   3.14107
   D29        3.14025   0.00003   0.00000   0.00029   0.00029   3.14054
   D30       -0.00041  -0.00001   0.00000  -0.00007  -0.00006  -0.00047
   D31       -0.00047   0.00000   0.00000   0.00007   0.00007  -0.00040
   D32       -3.14113  -0.00003   0.00000  -0.00029  -0.00028  -3.14141
   D33        0.00043  -0.00001   0.00000  -0.00009  -0.00009   0.00034
   D34        3.14115   0.00001   0.00000   0.00020   0.00022   3.14137
   D35       -0.00020   0.00001   0.00000   0.00009   0.00009  -0.00012
   D36        3.14152   0.00001   0.00000   0.00007   0.00007   3.14158
   D37        0.00004   0.00000   0.00000  -0.00006  -0.00007  -0.00003
   D38       -3.14093  -0.00001   0.00000  -0.00017  -0.00018  -3.14111
   D39        3.14151   0.00000   0.00000  -0.00004  -0.00005   3.14146
   D40        0.00054  -0.00001   0.00000  -0.00016  -0.00016   0.00038
         Item               Value     Threshold  Converged?
 Maximum Force            0.108736     0.000450     NO 
 RMS     Force            0.020868     0.000300     NO 
 Maximum Displacement     0.197214     0.001800     NO 
 RMS     Displacement     0.050518     0.001200     NO 
 Predicted change in Energy=-3.138516D-02
 GradGradGradGradGradGradGradGradGradGradGradGradGradGradGradGradGradGrad

                          Input orientation:                          
 ---------------------------------------------------------------------
 Center     Atomic      Atomic             Coordinates (Angstroms)
 Number     Number       Type             X           Y           Z
 ---------------------------------------------------------------------
      1          7           0        1.125879   -0.191704    0.043348
      2          6           0        2.320729   -0.173517    0.043359
      3          6           0        4.515734   -1.345795    0.042947
      4          6           0        3.779041   -0.143702    0.043324
      5          6           0        4.462731    1.113671    0.043412
      6          6           0        5.855360    1.139187    0.042791
      7          6           0        6.624580   -0.069035    0.042516
      8          6           0        5.950608   -1.353809    0.042808
      9          6           0        6.777608   -2.551833    0.042160
     10          6           0        8.193108   -2.555451    0.040796
     11          6           0        8.782685   -1.245242    0.040508
     12          6           0        8.056502   -0.046383    0.041330
     13          7           0        5.685481   -4.973159    0.041915
     14          6           0        6.139711   -3.866262    0.042196
     15          1           0        3.972821   -2.300543    0.042157
     16          1           0        3.897965    2.052882    0.043779
     17          1           0        6.371024    2.107244    0.042094
     18          1           0        9.883049   -1.152127    0.039479
     19          1           0        8.566233    0.929568    0.040602
 ---------------------------------------------------------------------
                    Distance matrix (angstroms):
                    1          2          3          4          5
     1  N    0.000000
     2  C    1.194988   0.000000
     3  C    3.580928   2.488430   0.000000
     4  C    2.653597   1.458618   1.409874   0.000000
     5  C    3.583097   2.499006   2.460037   1.431230   0.000000
     6  C    4.913172   3.770519   2.823072   2.440676   1.392862
     7  C    5.500069   4.305119   2.465228   2.846518   2.464220
     8  C    4.962711   3.816951   1.434896   2.485973   2.881360
     9  C    6.124725   5.051749   2.563318   3.845842   4.335271
    10  C    7.452049   6.337070   3.871220   5.029962   5.232415
    11  C    7.728948   6.550228   4.268136   5.123461   4.922040
    12  C    6.932147   5.737183   3.771673   4.278568   3.776363
    13  N    6.606988   5.861580   3.811309   5.192126   6.208431
    14  C    6.216179   5.312343   2.998341   4.407971   5.254711
    15  H    3.542920   2.693260   1.098316   2.165529   3.449184
    16  H    3.566879   2.728467   3.454367   2.199801   1.095938
    17  H    5.726841   4.648308   3.919895   3.432948   2.151457
    18  H    8.809680   7.625378   5.370809   6.186748   5.874836
    19  H    7.524369   6.342171   4.645840   4.906029   4.107631
                    6          7          8          9         10
     6  C    0.000000
     7  C    1.432306   0.000000
     8  C    2.494815   1.450822   0.000000
     9  C    3.804493   2.487510   1.455744   0.000000
    10  C    4.372119   2.939821   2.544160   1.415505   0.000000
    11  C    3.775545   2.457822   2.834158   2.393223   1.436749
    12  C    2.500121   1.432102   2.478741   2.812979   2.512785
    13  N    6.114706   4.993230   3.629048   2.656231   3.483318
    14  C    5.013519   3.828058   2.519559   1.461040   2.436117
    15  H    3.921185   3.465754   2.192703   2.816022   4.227978
    16  H    2.160147   3.454991   3.977297   5.430999   6.299603
    17  H    1.096834   2.190999   3.486494   4.676784   5.006068
    18  H    4.633834   3.433762   3.937611   3.406310   2.196638
    19  H    2.718967   2.183399   3.472076   3.913992   3.504937
                   11         12         13         14         15
    11  C    0.000000
    12  C    1.401644   0.000000
    13  N    4.846652   5.467620   0.000000
    14  C    3.722239   4.273824   1.196472   0.000000
    15  H    4.924272   4.664514   3.174284   2.673366   0.000000
    16  H    5.893907   4.658364   7.249860   6.329431   4.354069
    17  H    4.129804   2.734766   7.113513   5.977982   5.017964
    18  H    1.104297   2.135169   5.676255   4.623756   6.020769
    19  H    2.185555   1.101048   6.568175   5.374756   5.615430
                   16         17         18         19
    16  H    0.000000
    17  H    2.473657   0.000000
    18  H    6.789208   4.791433   0.000000
    19  H    4.801518   2.491158   2.463222   0.000000
 Stoichiometry    C12H5N2(1-)
 Framework group  C1[X(C12H5N2)]
 Deg. of freedom    51
 Full point group                 C1      NOp   1
 Largest Abelian subgroup         C1      NOp   1
 Largest concise Abelian subgroup C1      NOp   1
                         Standard orientation:                         
 ---------------------------------------------------------------------
 Center     Atomic      Atomic             Coordinates (Angstroms)
 Number     Number       Type             X           Y           Z
 ---------------------------------------------------------------------
      1          7           0       -4.415932    1.146925    0.000743
      2          6           0       -3.351724    0.603365    0.000293
      3          6           0       -0.864692    0.686772   -0.000224
      4          6           0       -2.056222   -0.066887   -0.000206
      5          6           0       -1.997522   -1.496913   -0.000418
      6          6           0       -0.759066   -2.134323   -0.000307
      7          6           0        0.464357   -1.389517   -0.000439
      8          6           0        0.426469    0.060810   -0.000614
      9          6           0        1.697243    0.770968   -0.000393
     10          6           0        2.969079    0.149610    0.000449
     11          6           0        2.920010   -1.286301    0.000654
     12          6           0        1.739338   -2.041696    0.000222
     13          7           0        1.785628    3.425728    0.000006
     14          6           0        1.704813    2.231988   -0.000329
     15          1           0       -0.930598    1.783109    0.000669
     16          1           0       -2.918770   -2.090532   -0.000480
     17          1           0       -0.723486   -3.230579    0.000299
     18          1           0        3.866366   -1.855408    0.001287
     19          1           0        1.766112   -3.142418    0.000862
 ---------------------------------------------------------------------
 Rotational constants (GHZ):      1.0851416      0.5529817      0.3663115
 Standard basis: STO-3G (5D, 7F)
 There are    75 symmetry adapted cartesian basis functions of A   symmetry.
 There are    75 symmetry adapted basis functions of A   symmetry.
    75 basis functions,   225 primitive gaussians,    75 cartesian basis functions
    46 alpha electrons       46 beta electrons
       nuclear repulsion energy       696.3442743333 Hartrees.
 NAtoms=   19 NActive=   19 NUniq=   19 SFac= 1.00D+00 NAtFMM=   60 NAOKFM=F Big=F
 Integral buffers will be    131072 words long.
 Raffenetti 2 integral format.
 Two-electron integral symmetry is turned on.
 One-electron integrals computed using PRISM.
 NBasis=    75 RedAO= T EigKep=  1.73D-01  NBF=    75
 NBsUse=    75 1.00D-06 EigRej= -1.00D+00 NBFU=    75
 Initial guess from the checkpoint file:  "/tmp/bnp.472620.sequoia/Gau-17228.chk"
 B after Tr=     0.000000    0.000000    0.000000
         Rot=    0.999955    0.000005   -0.000001   -0.009451 Ang=   1.08 deg.
 ExpMin= 1.69D-01 ExpMax= 9.91D+01 ExpMxC= 9.91D+01 IAcc=1 IRadAn=         1 AccDes= 0.00D+00
 Harris functional with IExCor=  402 and IRadAn=       1 diagonalized for initial guess.
 HarFok:  IExCor=  402 AccDes= 0.00D+00 IRadAn=         1 IDoV= 1 UseB2=F ITyADJ=14
 ICtDFT=  3500011 ScaDFX=  1.000000  1.000000  1.000000  1.000000
 FoFCou: FMM=F IPFlag=           0 FMFlag=      100000 FMFlg1=           0
         NFxFlg=           0 DoJE=T BraDBF=F KetDBF=T FulRan=T
         wScrn=  0.000000 ICntrl=     500 IOpCl=  0 I1Cent=   200000004 NGrid=           0
         NMat0=    1 NMatS0=      1 NMatT0=    0 NMatD0=    1 NMtDS0=    0 NMtDT0=    0
 Petite list used in FoFCou.
 Keep R1 ints in memory in canonical form, NReq=4993994.
 Requested convergence on RMS density matrix=1.00D-08 within 128 cycles.
 Requested convergence on MAX density matrix=1.00D-06.
 Requested convergence on             energy=1.00D-06.
 No special actions if energy rises.
 Integral accuracy reduced to 1.0D-05 until final iterations.
 Initial convergence to 1.0D-05 achieved.  Increase integral accuracy.
 SCF Done:  E(RB3LYP) =  -562.515253775     A.U. after   20 cycles
            NFock= 20  Conv=0.20D-08     -V/T= 2.0139
 Calling FoFJK, ICntrl=      2127 FMM=F ISym2X=0 I1Cent= 0 IOpClX= 0 NMat=1 NMatS=1 NMatT=0.
 ***** Axes restored to original set *****
 -------------------------------------------------------------------
 Center     Atomic                   Forces (Hartrees/Bohr)
 Number     Number              X              Y              Z
 -------------------------------------------------------------------
      1        7          -0.011239803   -0.000131409    0.000000767
      2        6           0.008276007    0.000068328    0.000001495
      3        6          -0.002744277    0.002836229   -0.000020636
      4        6           0.001253596   -0.008566180    0.000007732
      5        6           0.011319953    0.007992767    0.000000515
      6        6          -0.012415330   -0.000308149   -0.000007373
      7        6           0.001013639    0.004909514   -0.000020904
      8        6          -0.009863538   -0.001948280   -0.000011369
      9        6           0.008039037    0.018647178   -0.000027039
     10        6           0.012378618   -0.036317855    0.000008983
     11        6          -0.015167733    0.024963784    0.000020630
     12        6           0.016715139   -0.007299649   -0.000020620
     13        7          -0.004067284   -0.008776226    0.000005576
     14        6          -0.003977338    0.003106682    0.000002854
     15        1           0.000753476   -0.001620285    0.000031728
     16        1          -0.002435639   -0.000514886   -0.000009121
     17        1           0.002249836    0.000377217    0.000024091
     18        1           0.002064579    0.001025816   -0.000011692
     19        1          -0.002152936    0.001555402    0.000024383
 -------------------------------------------------------------------
 Cartesian Forces:  Max     0.036317855 RMS     0.008350173

 GradGradGradGradGradGradGradGradGradGradGradGradGradGradGradGradGradGrad
 Berny optimization.
 Using GEDIIS/GDIIS optimizer.
 FormGI is forming the generalized inverse of G from B-inverse, IUseBI=4.
 Internal  Forces:  Max     0.021099331 RMS     0.004692044
 Search for a local minimum.
 Step number   2 out of a maximum of  102
 All quantities printed in internal units (Hartrees-Bohrs-Radians)
 Mixed Optimization -- RFO/linear search
 Update second derivatives using D2CorX and points    1    2
 DE= -3.05D-02 DEPred=-3.14D-02 R= 9.72D-01
 TightC=F SS=  1.41D+00  RLast= 3.00D-01 DXNew= 5.0454D-01 8.9994D-01
 Trust test= 9.72D-01 RLast= 3.00D-01 DXMaxT set to 5.05D-01
 ITU=  1  0
 Use linear search instead of GDIIS.
     Eigenvalues ---    0.01591   0.01592   0.01824   0.01837   0.01878
     Eigenvalues ---    0.01899   0.01945   0.02026   0.02053   0.02082
     Eigenvalues ---    0.02120   0.02139   0.02142   0.02169   0.02194
     Eigenvalues ---    0.02227   0.04856   0.04893   0.15913   0.16000
     Eigenvalues ---    0.16000   0.16000   0.16105   0.21449   0.22420
     Eigenvalues ---    0.23112   0.23533   0.24534   0.24914   0.25000
     Eigenvalues ---    0.25022   0.34712   0.34843   0.34929   0.34978
     Eigenvalues ---    0.35337   0.38564   0.39942   0.40048   0.40161
     Eigenvalues ---    0.40322   0.42916   0.43636   0.44778   0.45182
     Eigenvalues ---    0.45650   0.46121   0.46591   0.49466   1.28016
     Eigenvalues ---    1.36727
 RFO step:  Lambda=-4.15274253D-03 EMin= 1.59137865D-02
 Quartic linear search produced a step of  0.34796.
 Iteration  1 RMS(Cart)=  0.04502506 RMS(Int)=  0.00122130
 Iteration  2 RMS(Cart)=  0.00206191 RMS(Int)=  0.00026554
 Iteration  3 RMS(Cart)=  0.00000141 RMS(Int)=  0.00026554
 Iteration  4 RMS(Cart)=  0.00000000 RMS(Int)=  0.00026554
 Variable       Old X    -DE/DX   Delta X   Delta X   Delta X     New X
                                 (Linear)    (Quad)   (Total)
    R1        2.25820   0.01124   0.02404  -0.01228   0.01175   2.26995
    R2        2.75639   0.00297   0.01382  -0.00429   0.00953   2.76592
    R3        2.66428  -0.00317   0.00282  -0.01217  -0.00930   2.65498
    R4        2.71156  -0.00040   0.00795  -0.00960  -0.00167   2.70989
    R5        2.07552   0.00104   0.00486  -0.00105   0.00381   2.07933
    R6        2.70463   0.00756   0.02395  -0.00240   0.02162   2.72625
    R7        2.63213  -0.00481  -0.00012  -0.01341  -0.01350   2.61863
    R8        2.07102   0.00081   0.00462  -0.00168   0.00295   2.07397
    R9        2.70667   0.00388   0.02013  -0.00933   0.01076   2.71742
   R10        2.07272   0.00139   0.00467   0.00048   0.00516   2.07787
   R11        2.74166   0.00172   0.02027  -0.01657   0.00320   2.74486
   R12        2.70628   0.00509   0.02029  -0.00710   0.01267   2.71895
   R13        2.75096   0.00372   0.02060  -0.00861   0.01212   2.76308
   R14        2.67492   0.00870   0.01098   0.01544   0.02693   2.70185
   R15        2.76096   0.00861   0.01763   0.01032   0.02795   2.78892
   R16        2.71506   0.02110   0.03209   0.02703   0.05951   2.77458
   R17        2.64872  -0.00589   0.00741  -0.02468  -0.01735   2.63137
   R18        2.08682   0.00214   0.01181  -0.00409   0.00772   2.09454
   R19        2.08068   0.00038   0.00780  -0.00659   0.00121   2.08189
   R20        2.26101   0.00966   0.02348  -0.01325   0.01023   2.27123
    A1        2.12619  -0.00038   0.00136  -0.00444  -0.00320   2.12299
    A2        2.07474   0.00170   0.00346   0.01012   0.01364   2.08838
    A3        2.08226  -0.00132  -0.00482  -0.00567  -0.01044   2.07182
    A4        2.10016  -0.00004  -0.00272   0.00247  -0.00024   2.09992
    A5        2.08927  -0.00011   0.00123  -0.00204  -0.00080   2.08847
    A6        2.09376   0.00015   0.00149  -0.00044   0.00104   2.09479
    A7        2.08714  -0.00046  -0.00151  -0.00077  -0.00232   2.08483
    A8        2.10217  -0.00221  -0.00379  -0.01467  -0.01844   2.08374
    A9        2.09387   0.00267   0.00530   0.01544   0.02076   2.11462
   A10        2.11941   0.00094   0.00234   0.00248   0.00466   2.12408
   A11        2.07856   0.00140   0.00271   0.00990   0.01269   2.09126
   A12        2.08521  -0.00234  -0.00505  -0.01238  -0.01735   2.06785
   A13        2.09154  -0.00196  -0.00446  -0.00457  -0.00871   2.08282
   A14        2.12191   0.00534   0.01592   0.01510   0.03174   2.15365
   A15        2.06973  -0.00338  -0.01146  -0.01053  -0.02303   2.04671
   A16        2.04833   0.00172   0.00077   0.00775   0.00853   2.05686
   A17        2.18057  -0.00204  -0.00173  -0.00710  -0.00847   2.17210
   A18        2.05428   0.00032   0.00096  -0.00065  -0.00006   2.05422
   A19        2.17754   0.01148   0.02477   0.03638   0.06167   2.23921
   A20        2.08558  -0.01280  -0.02342  -0.04396  -0.06765   2.01794
   A21        2.02006   0.00131  -0.00135   0.00758   0.00597   2.02604
   A22        1.99108  -0.02057  -0.04080  -0.06289  -0.10223   1.88885
   A23        2.17413   0.01142   0.03048   0.03477   0.06545   2.23958
   A24        2.07806  -0.00482  -0.00725  -0.01880  -0.02615   2.05192
   A25        2.03100  -0.00660  -0.02323  -0.01597  -0.03931   1.99169
   A26        2.09960   0.00073  -0.00394   0.00292  -0.00181   2.09779
   A27        2.06794  -0.00310  -0.01155  -0.00920  -0.02036   2.04757
   A28        2.11565   0.00237   0.01549   0.00629   0.02217   2.13782
   A29        3.13637  -0.00008   0.00370  -0.01241  -0.00871   3.12766
   A30        3.20401  -0.00097   0.01423  -0.04329  -0.02906   3.17495
   A31        3.14164   0.00000  -0.00001  -0.00008  -0.00009   3.14155
   A32        3.14134   0.00002   0.00013   0.00027   0.00040   3.14173
    D1        3.14152   0.00000   0.00002   0.00013   0.00015  -3.14152
    D2        0.00013   0.00000  -0.00002  -0.00010  -0.00011   0.00002
    D3        0.00055  -0.00001  -0.00006  -0.00059  -0.00065  -0.00011
    D4       -3.14084  -0.00002  -0.00009  -0.00082  -0.00092   3.14143
    D5       -0.00043   0.00001   0.00004   0.00039   0.00043   0.00000
    D6       -3.14137  -0.00001  -0.00004  -0.00035  -0.00037   3.14144
    D7        3.14054   0.00002   0.00012   0.00112   0.00124  -3.14141
    D8       -0.00040   0.00001   0.00004   0.00038   0.00043   0.00003
    D9       -3.14111  -0.00001  -0.00006  -0.00052  -0.00058   3.14150
   D10        0.00029   0.00000  -0.00002  -0.00020  -0.00023   0.00006
   D11        0.00027  -0.00001  -0.00003  -0.00029  -0.00032  -0.00005
   D12       -3.14151   0.00000   0.00001   0.00003   0.00003  -3.14148
   D13       -0.00037   0.00001   0.00004   0.00038   0.00042   0.00005
   D14        3.14079   0.00002   0.00010   0.00088   0.00098  -3.14142
   D15        3.14142   0.00000   0.00001   0.00006   0.00006   3.14148
   D16       -0.00061   0.00001   0.00006   0.00056   0.00062   0.00001
   D17        0.00006   0.00000  -0.00001  -0.00008  -0.00009  -0.00003
   D18        3.14114   0.00001   0.00005   0.00046   0.00051  -3.14153
   D19       -3.14110  -0.00001  -0.00007  -0.00058  -0.00065   3.14144
   D20       -0.00001   0.00000  -0.00001  -0.00004  -0.00005  -0.00006
   D21        0.00033  -0.00001  -0.00003  -0.00030  -0.00033   0.00000
   D22        3.14132   0.00001   0.00004   0.00038   0.00041  -3.14145
   D23       -3.14076  -0.00002  -0.00010  -0.00083  -0.00091   3.14151
   D24        0.00022  -0.00001  -0.00003  -0.00015  -0.00017   0.00006
   D25       -3.14111  -0.00001  -0.00004  -0.00038  -0.00042  -3.14154
   D26       -0.00002   0.00000   0.00001   0.00004   0.00003   0.00001
   D27       -0.00003   0.00000   0.00002   0.00016   0.00017   0.00014
   D28        3.14107   0.00001   0.00007   0.00057   0.00062  -3.14150
   D29        3.14054   0.00002   0.00010   0.00097   0.00107  -3.14158
   D30       -0.00047   0.00000  -0.00002   0.00001   0.00000  -0.00047
   D31       -0.00040   0.00000   0.00002   0.00023   0.00026  -0.00014
   D32       -3.14141  -0.00002  -0.00010  -0.00073  -0.00080   3.14097
   D33        0.00034  -0.00001  -0.00003  -0.00030  -0.00032   0.00001
   D34        3.14137   0.00001   0.00008   0.00061   0.00072  -3.14110
   D35       -0.00012   0.00001   0.00003   0.00031   0.00034   0.00022
   D36        3.14158   0.00000   0.00002   0.00016   0.00017  -3.14144
   D37       -0.00003   0.00000  -0.00002  -0.00024  -0.00028  -0.00031
   D38       -3.14111  -0.00001  -0.00006  -0.00066  -0.00075   3.14133
   D39        3.14146   0.00000  -0.00002  -0.00010  -0.00012   3.14134
   D40        0.00038  -0.00001  -0.00006  -0.00052  -0.00058  -0.00020
         Item               Value     Threshold  Converged?
 Maximum Force            0.021099     0.000450     NO 
 RMS     Force            0.004692     0.000300     NO 
 Maximum Displacement     0.280258     0.001800     NO 
 RMS     Displacement     0.045586     0.001200     NO 
 Predicted change in Energy=-3.646446D-03
 GradGradGradGradGradGradGradGradGradGradGradGradGradGradGradGradGradGrad

                          Input orientation:                          
 ---------------------------------------------------------------------
 Center     Atomic      Atomic             Coordinates (Angstroms)
 Number     Number       Type             X           Y           Z
 ---------------------------------------------------------------------
      1          7           0        1.126616   -0.238076    0.044278
      2          6           0        2.327593   -0.214549    0.043664
      3          6           0        4.539873   -1.353870    0.042351
      4          6           0        3.790432   -0.165497    0.042978
      5          6           0        4.461931    1.111367    0.043012
      6          6           0        5.847029    1.152765    0.042479
      7          6           0        6.638883   -0.047571    0.041829
      8          6           0        5.973806   -1.338879    0.041759
      9          6           0        6.813536   -2.535858    0.041276
     10          6           0        8.240998   -2.616820    0.040687
     11          6           0        8.778380   -1.250455    0.040653
     12          6           0        8.077687   -0.047133    0.041341
     13          7           0        5.537175   -4.889385    0.042838
     14          6           0        6.090627   -3.822513    0.042053
     15          1           0        4.021476   -2.324437    0.042481
     16          1           0        3.866266    2.033151    0.043614
     17          1           0        6.365075    2.122644    0.042670
     18          1           0        9.880493   -1.132737    0.040069
     19          1           0        8.582974    0.931845    0.041488
 ---------------------------------------------------------------------
                    Distance matrix (angstroms):
                    1          2          3          4          5
     1  N    0.000000
     2  C    1.201208   0.000000
     3  C    3.591006   2.488420   0.000000
     4  C    2.664805   1.463661   1.404953   0.000000
     5  C    3.597962   2.512659   2.466468   1.442668   0.000000
     6  C    4.921052   3.775709   2.826990   2.442827   1.385717
     7  C    5.515559   4.314523   2.472299   2.850891   2.466223
     8  C    4.970616   3.815624   1.434012   2.478699   2.879144
     9  C    6.133586   5.050956   2.562546   3.841585   4.339619
    10  C    7.501525   6.382732   3.910675   5.080997   5.308552
    11  C    7.718447   6.533434   4.239769   5.104583   4.920359
    12  C    6.953694   5.752531   3.771432   4.288889   3.796817
    13  N    6.409969   5.670582   3.673483   5.036490   6.096324
    14  C    6.122875   5.213235   2.915311   4.320262   5.195750
    15  H    3.568350   2.705710   1.100334   2.171268   3.463921
    16  H    3.558674   2.723907   3.453354   2.199955   1.097499
    17  H    5.745821   4.665161   3.926514   3.444470   2.155142
    18  H    8.799477   7.608507   5.345197   6.166393   5.864880
    19  H    7.547583   6.359561   4.644477   4.916566   4.124951
                    6          7          8          9         10
     6  C    0.000000
     7  C    1.437998   0.000000
     8  C    2.494867   1.452517   0.000000
     9  C    3.813144   2.494408   1.462157   0.000000
    10  C    4.465519   3.027840   2.602555   1.429756   0.000000
    11  C    3.790552   2.454461   2.805968   2.347951   1.468242
    12  C    2.532902   1.438804   2.468791   2.791385   2.574872
    13  N    6.050089   4.965573   3.577253   2.677347   3.532027
    14  C    4.981237   3.814547   2.486379   1.475831   2.465318
    15  H    3.927286   3.469141   2.186988   2.800053   4.229640
    16  H    2.167603   3.466528   3.976470   5.437117   6.384396
    17  H    1.099562   2.187420   3.483567   4.680038   5.097216
    18  H    4.635984   3.418424   3.912122   3.372680   2.211435
    19  H    2.744849   2.176866   3.458894   3.893055   3.565105
                   11         12         13         14         15
    11  C    0.000000
    12  C    1.392463   0.000000
    13  N    4.873113   5.468236   0.000000
    14  C    3.720148   4.266369   1.201884   0.000000
    15  H    4.876636   4.651770   2.979312   2.554528   0.000000
    16  H    5.908548   4.697197   7.121337   6.263911   4.360351
    17  H    4.147511   2.764232   7.060734   5.951488   5.026826
    18  H    1.108382   2.104435   5.742545   4.647363   5.978982
    19  H    2.191031   1.101686   6.569902   5.368027   5.604519
                   16         17         18         19
    16  H    0.000000
    17  H    2.500411   0.000000
    18  H    6.796601   4.791209   0.000000
    19  H    4.843574   2.517356   2.438454   0.000000
 Stoichiometry    C12H5N2(1-)
 Framework group  C1[X(C12H5N2)]
 Deg. of freedom    51
 Full point group                 C1      NOp   1
 Largest Abelian subgroup         C1      NOp   1
 Largest concise Abelian subgroup C1      NOp   1
                         Standard orientation:                         
 ---------------------------------------------------------------------
 Center     Atomic      Atomic             Coordinates (Angstroms)
 Number     Number       Type             X           Y           Z
 ---------------------------------------------------------------------
      1          7           0       -4.426141    1.052272    0.000043
      2          6           0       -3.342386    0.534223    0.000106
      3          6           0       -0.856984    0.656748    0.000374
      4          6           0       -2.030762   -0.115352    0.000121
      5          6           0       -1.947373   -1.555608   -0.000189
      6          6           0       -0.703367   -2.166066   -0.000291
      7          6           0        0.513975   -1.400613   -0.000035
      8          6           0        0.442407    0.050139    0.000308
      9          6           0        1.701951    0.792737    0.000376
     10          6           0        3.035128    0.276170    0.000307
     11          6           0        2.959393   -1.190118    0.000129
     12          6           0        1.823818   -1.995986   -0.000207
     13          7           0        1.513060    3.463413   -0.000659
     14          6           0        1.575803    2.263168   -0.000102
     15          1           0       -0.927632    1.754812    0.000459
     16          1           0       -2.870899   -2.148569   -0.000494
     17          1           0       -0.632753   -3.263358   -0.000695
     18          1           0        3.914183   -1.753044    0.000209
     19          1           0        1.879052   -3.096287   -0.000562
 ---------------------------------------------------------------------
 Rotational constants (GHZ):      1.0830387      0.5587542      0.3685925
 Standard basis: STO-3G (5D, 7F)
 There are    75 symmetry adapted cartesian basis functions of A   symmetry.
 There are    75 symmetry adapted basis functions of A   symmetry.
    75 basis functions,   225 primitive gaussians,    75 cartesian basis functions
    46 alpha electrons       46 beta electrons
       nuclear repulsion energy       695.8318974680 Hartrees.
 NAtoms=   19 NActive=   19 NUniq=   19 SFac= 1.00D+00 NAtFMM=   60 NAOKFM=F Big=F
 Integral buffers will be    131072 words long.
 Raffenetti 2 integral format.
 Two-electron integral symmetry is turned on.
 One-electron integrals computed using PRISM.
 NBasis=    75 RedAO= T EigKep=  1.76D-01  NBF=    75
 NBsUse=    75 1.00D-06 EigRej= -1.00D+00 NBFU=    75
 Initial guess from the checkpoint file:  "/tmp/bnp.472620.sequoia/Gau-17228.chk"
 B after Tr=     0.000000    0.000000    0.000000
         Rot=    0.999861    0.000001   -0.000002   -0.016692 Ang=   1.91 deg.
 ExpMin= 1.69D-01 ExpMax= 9.91D+01 ExpMxC= 9.91D+01 IAcc=1 IRadAn=         1 AccDes= 0.00D+00
 Harris functional with IExCor=  402 and IRadAn=       1 diagonalized for initial guess.
 HarFok:  IExCor=  402 AccDes= 0.00D+00 IRadAn=         1 IDoV= 1 UseB2=F ITyADJ=14
 ICtDFT=  3500011 ScaDFX=  1.000000  1.000000  1.000000  1.000000
 FoFCou: FMM=F IPFlag=           0 FMFlag=      100000 FMFlg1=           0
         NFxFlg=           0 DoJE=T BraDBF=F KetDBF=T FulRan=T
         wScrn=  0.000000 ICntrl=     500 IOpCl=  0 I1Cent=   200000004 NGrid=           0
         NMat0=    1 NMatS0=      1 NMatT0=    0 NMatD0=    1 NMtDS0=    0 NMtDT0=    0
 Petite list used in FoFCou.
 Keep R1 ints in memory in canonical form, NReq=4993994.
 Requested convergence on RMS density matrix=1.00D-08 within 128 cycles.
 Requested convergence on MAX density matrix=1.00D-06.
 Requested convergence on             energy=1.00D-06.
 No special actions if energy rises.
 Integral accuracy reduced to 1.0D-05 until final iterations.
 Initial convergence to 1.0D-05 achieved.  Increase integral accuracy.
 SCF Done:  E(RB3LYP) =  -562.519251181     A.U. after   19 cycles
            NFock= 19  Conv=0.42D-08     -V/T= 2.0140
 Calling FoFJK, ICntrl=      2127 FMM=F ISym2X=0 I1Cent= 0 IOpClX= 0 NMat=1 NMatS=1 NMatT=0.
 ***** Axes restored to original set *****
 -------------------------------------------------------------------
 Center     Atomic                   Forces (Hartrees/Bohr)
 Number     Number              X              Y              Z
 -------------------------------------------------------------------
      1        7           0.003359736   -0.000161207   -0.000004490
      2        6          -0.002382610    0.000994650    0.000007204
      3        6          -0.000777603   -0.001001563    0.000004053
      4        6          -0.000635718   -0.000519827   -0.000001859
      5        6          -0.000581631    0.000014985    0.000005607
      6        6           0.001296133   -0.000039374    0.000003386
      7        6          -0.001876173   -0.000363872    0.000002577
      8        6           0.001453601    0.000841734   -0.000007333
      9        6          -0.002980992   -0.001019075    0.000021828
     10        6          -0.000200176   -0.004442109    0.000005035
     11        6           0.004996947    0.010235875   -0.000016174
     12        6          -0.001033443   -0.001148784    0.000007332
     13        7           0.001859794    0.003400204   -0.000007351
     14        6          -0.003353157   -0.004265067    0.000001174
     15        1           0.000324298    0.000534146   -0.000008133
     16        1           0.000052336   -0.000466534   -0.000004127
     17        1          -0.000236208   -0.000311729   -0.000005751
     18        1          -0.000064016   -0.001124995   -0.000002998
     19        1           0.000778883   -0.001157459    0.000000020
 -------------------------------------------------------------------
 Cartesian Forces:  Max     0.010235875 RMS     0.002047760

 GradGradGradGradGradGradGradGradGradGradGradGradGradGradGradGradGradGrad
 Berny optimization.
 Using GEDIIS/GDIIS optimizer.
 FormGI is forming the generalized inverse of G from B-inverse, IUseBI=4.
 Internal  Forces:  Max     0.006900878 RMS     0.001162889
 Search for a local minimum.
 Step number   3 out of a maximum of  102
 All quantities printed in internal units (Hartrees-Bohrs-Radians)
 Mixed Optimization -- RFO/linear search
 Update second derivatives using D2CorX and points    1    2    3
 DE= -4.00D-03 DEPred=-3.65D-03 R= 1.10D+00
 TightC=F SS=  1.41D+00  RLast= 1.94D-01 DXNew= 8.4853D-01 5.8103D-01
 Trust test= 1.10D+00 RLast= 1.94D-01 DXMaxT set to 5.81D-01
 ITU=  1  1  0
 Use linear search instead of GDIIS.
     Eigenvalues ---    0.01591   0.01594   0.01826   0.01836   0.01883
     Eigenvalues ---    0.01901   0.01946   0.02027   0.02049   0.02082
     Eigenvalues ---    0.02121   0.02139   0.02144   0.02170   0.02197
     Eigenvalues ---    0.02227   0.04856   0.04921   0.15739   0.16000
     Eigenvalues ---    0.16000   0.16002   0.16244   0.20963   0.22417
     Eigenvalues ---    0.22842   0.23546   0.24530   0.24909   0.25001
     Eigenvalues ---    0.25495   0.34722   0.34840   0.34928   0.34999
     Eigenvalues ---    0.35290   0.37925   0.38948   0.40061   0.40248
     Eigenvalues ---    0.40284   0.42038   0.43210   0.44280   0.45160
     Eigenvalues ---    0.45615   0.46067   0.46613   0.49485   1.28029
     Eigenvalues ---    1.40553
 RFO step:  Lambda=-2.99797126D-04 EMin= 1.59137870D-02
 Quartic linear search produced a step of -0.00724.
 Iteration  1 RMS(Cart)=  0.00695830 RMS(Int)=  0.00008549
 Iteration  2 RMS(Cart)=  0.00008658 RMS(Int)=  0.00000251
 Iteration  3 RMS(Cart)=  0.00000000 RMS(Int)=  0.00000251
 Variable       Old X    -DE/DX   Delta X   Delta X   Delta X     New X
                                 (Linear)    (Quad)   (Total)
    R1        2.26995  -0.00336  -0.00009  -0.00149  -0.00157   2.26838
    R2        2.76592  -0.00101  -0.00007  -0.00174  -0.00181   2.76411
    R3        2.65498  -0.00003   0.00007  -0.00009  -0.00002   2.65496
    R4        2.70989   0.00050   0.00001   0.00145   0.00146   2.71135
    R5        2.07933  -0.00062  -0.00003  -0.00149  -0.00152   2.07781
    R6        2.72625  -0.00051  -0.00016   0.00038   0.00023   2.72647
    R7        2.61863   0.00015   0.00010  -0.00007   0.00003   2.61866
    R8        2.07397  -0.00042  -0.00002  -0.00094  -0.00096   2.07301
    R9        2.71742  -0.00086  -0.00008  -0.00097  -0.00105   2.71637
   R10        2.07787  -0.00039  -0.00004  -0.00079  -0.00082   2.07705
   R11        2.74486   0.00006  -0.00002   0.00039   0.00037   2.74523
   R12        2.71895   0.00107  -0.00009   0.00304   0.00295   2.72190
   R13        2.76308  -0.00034  -0.00009   0.00014   0.00005   2.76312
   R14        2.70185   0.00332  -0.00019   0.00850   0.00830   2.71015
   R15        2.78892   0.00149  -0.00020   0.00497   0.00477   2.79369
   R16        2.77458   0.00690  -0.00043   0.01731   0.01688   2.79145
   R17        2.63137  -0.00202   0.00013  -0.00425  -0.00413   2.62725
   R18        2.09454  -0.00018  -0.00006   0.00012   0.00006   2.09460
   R19        2.08189  -0.00067  -0.00001  -0.00158  -0.00159   2.08030
   R20        2.27123  -0.00387  -0.00007  -0.00197  -0.00205   2.26919
    A1        2.12299  -0.00037   0.00002  -0.00161  -0.00158   2.12141
    A2        2.08838   0.00022  -0.00010   0.00150   0.00140   2.08978
    A3        2.07182   0.00015   0.00008   0.00011   0.00018   2.07200
    A4        2.09992   0.00082   0.00000   0.00307   0.00307   2.10299
    A5        2.08847  -0.00090   0.00001  -0.00358  -0.00358   2.08489
    A6        2.09479   0.00008  -0.00001   0.00051   0.00051   2.09530
    A7        2.08483   0.00022   0.00002   0.00071   0.00072   2.08555
    A8        2.08374  -0.00032   0.00013  -0.00237  -0.00223   2.08150
    A9        2.11462   0.00010  -0.00015   0.00166   0.00151   2.11613
   A10        2.12408  -0.00008  -0.00003  -0.00066  -0.00069   2.12338
   A11        2.09126  -0.00002  -0.00009   0.00051   0.00041   2.09167
   A12        2.06785   0.00010   0.00013   0.00016   0.00028   2.06813
   A13        2.08282   0.00010   0.00006   0.00027   0.00033   2.08316
   A14        2.15365  -0.00118  -0.00023  -0.00210  -0.00234   2.15132
   A15        2.04671   0.00108   0.00017   0.00183   0.00201   2.04871
   A16        2.05686   0.00005  -0.00006   0.00078   0.00071   2.05757
   A17        2.17210  -0.00083   0.00006  -0.00281  -0.00275   2.16935
   A18        2.05422   0.00078   0.00000   0.00203   0.00203   2.05626
   A19        2.23921  -0.00165  -0.00045  -0.00362  -0.00408   2.23514
   A20        2.01794  -0.00031   0.00049  -0.00404  -0.00355   2.01439
   A21        2.02604   0.00196  -0.00004   0.00766   0.00762   2.03366
   A22        1.88885   0.00109   0.00074   0.00241   0.00314   1.89199
   A23        2.23958  -0.00221  -0.00047  -0.00592  -0.00639   2.23319
   A24        2.05192  -0.00006   0.00019  -0.00370  -0.00351   2.04841
   A25        1.99169   0.00227   0.00028   0.00961   0.00990   2.00159
   A26        2.09779   0.00090   0.00001   0.00327   0.00329   2.10108
   A27        2.04757   0.00082   0.00015   0.00507   0.00521   2.05278
   A28        2.13782  -0.00173  -0.00016  -0.00833  -0.00850   2.12932
   A29        3.12766   0.00051   0.00006   0.03115   0.03122   3.15888
   A30        3.17495   0.00019   0.00021   0.00409   0.00430   3.17924
   A31        3.14155   0.00000   0.00000   0.00030   0.00030   3.14184
   A32        3.14173  -0.00001   0.00000  -0.00020  -0.00020   3.14154
    D1       -3.14152   0.00000   0.00000   0.00000  -0.00001  -3.14153
    D2        0.00002   0.00000   0.00000   0.00007   0.00007   0.00009
    D3       -0.00011   0.00000   0.00000   0.00009   0.00010  -0.00001
    D4        3.14143   0.00000   0.00001   0.00016   0.00017  -3.14158
    D5        0.00000   0.00000   0.00000  -0.00009  -0.00010  -0.00009
    D6        3.14144   0.00000   0.00000  -0.00007  -0.00007   3.14137
    D7       -3.14141   0.00000  -0.00001  -0.00019  -0.00020   3.14157
    D8        0.00003   0.00000   0.00000  -0.00017  -0.00017  -0.00014
    D9        3.14150   0.00000   0.00000   0.00008   0.00008   3.14158
   D10        0.00006   0.00000   0.00000  -0.00009  -0.00009  -0.00003
   D11       -0.00005   0.00000   0.00000   0.00001   0.00001  -0.00004
   D12       -3.14148   0.00000   0.00000  -0.00016  -0.00016   3.14155
   D13        0.00005   0.00000   0.00000  -0.00005  -0.00005   0.00000
   D14       -3.14142  -0.00001  -0.00001  -0.00019  -0.00020   3.14157
   D15        3.14148   0.00000   0.00000   0.00012   0.00012  -3.14158
   D16        0.00001   0.00000   0.00000  -0.00002  -0.00003  -0.00001
   D17       -0.00003   0.00000   0.00000   0.00002   0.00002  -0.00001
[...]
 ! D15   D(16,5,6,7)           179.9958         -DE/DX =    0.0                 !
 ! D16   D(16,5,6,17)           -0.0037         -DE/DX =    0.0                 !
 ! D17   D(5,6,7,8)              0.0025         -DE/DX =    0.0                 !
 ! D18   D(5,6,7,12)           179.9894         -DE/DX =    0.0                 !
 ! D19   D(17,6,7,8)          -179.998          -DE/DX =    0.0                 !
 ! D20   D(17,6,7,12)           -0.0111         -DE/DX =    0.0                 !
 ! D21   D(6,7,8,3)              0.0062         -DE/DX =    0.0                 !
 ! D22   D(6,7,8,9)           -179.9673         -DE/DX =    0.0                 !
 ! D23   D(12,7,8,3)          -179.9814         -DE/DX =    0.0                 !
 ! D24   D(12,7,8,9)             0.0451         -DE/DX =    0.0                 !
 ! D25   D(6,7,12,11)         -179.9579         -DE/DX =    0.0                 !
 ! D26   D(6,7,12,19)            0.0093         -DE/DX =    0.0                 !
 ! D27   D(8,7,12,11)            0.0292         -DE/DX =    0.0                 !
 ! D28   D(8,7,12,19)          179.9964         -DE/DX =    0.0                 !
 ! D29   D(3,8,9,10)           179.9667         -DE/DX =    0.0                 !
 ! D30   D(3,8,9,14)            -0.0528         -DE/DX =    0.0                 !
 ! D31   D(7,8,9,10)            -0.0617         -DE/DX =    0.0                 !
 ! D32   D(7,8,9,14)           179.9189         -DE/DX =    0.0                 !
 ! D33   D(8,9,10,11)            0.0            -DE/DX =    0.0                 !
 ! D34   D(14,9,10,11)        -179.9804         -DE/DX =    0.0                 !
 ! D35   D(9,10,11,12)           0.0862         -DE/DX =    0.0                 !
 ! D36   D(9,10,11,18)        -179.9425         -DE/DX =    0.0                 !
 ! D37   D(10,11,12,7)          -0.1052         -DE/DX =    0.0                 !
 ! D38   D(10,11,12,19)        179.9291         -DE/DX =    0.0                 !
 ! D39   D(18,11,12,7)         179.9229         -DE/DX =    0.0                 !
 ! D40   D(18,11,12,19)         -0.0428         -DE/DX =    0.0                 !
 --------------------------------------------------------------------------------
 GradGradGradGradGradGradGradGradGradGradGradGradGradGradGradGradGradGrad

                          Input orientation:                          
 ---------------------------------------------------------------------
 Center     Atomic      Atomic             Coordinates (Angstroms)
 Number     Number       Type             X           Y           Z
 ---------------------------------------------------------------------
      1          7           0        1.129561   -0.233888    0.042531
      2          6           0        2.329086   -0.211003    0.043707
      3          6           0        4.539989   -1.357562    0.042009
      4          6           0        3.790961   -0.168872    0.043040
      5          6           0        4.461450    1.107677    0.043481
      6          6           0        5.847087    1.150251    0.043051
      7          6           0        6.636919   -0.049350    0.042209
      8          6           0        5.974848   -1.340730    0.041740
      9          6           0        6.812920   -2.539093    0.041624
     10          6           0        8.244231   -2.617107    0.040703
     11          6           0        8.785685   -1.238224    0.039839
     12          6           0        8.077641   -0.043852    0.041519
     13          7           0        5.523712   -4.885201    0.044004
     14          6           0        6.083702   -3.823640    0.043031
     15          1           0        4.022824   -2.327793    0.041586
     16          1           0        3.864032    2.027656    0.044193
     17          1           0        6.364478    2.119840    0.043363
     18          1           0        9.887700   -1.128831    0.038079
     19          1           0        8.584024    0.933712    0.041810
 ---------------------------------------------------------------------
                    Distance matrix (angstroms):
                    1          2          3          4          5
     1  N    0.000000
     2  C    1.199743   0.000000
     3  C    3.590774   2.490520   0.000000
     4  C    2.662194   1.462482   1.405000   0.000000
     5  C    3.591835   2.507168   2.466490   1.441920   0.000000
     6  C    4.916390   3.772180   2.828008   2.442895   1.386291
     7  C    5.510449   4.310866   2.471545   2.848467   2.464017
     8  C    4.970101   3.816788   1.434958   2.478430   2.878381
     9  C    6.133069   5.052205   2.561686   3.840597   4.339164
    10  C    7.503217   6.385788   3.912527   5.081877   5.308809
    11  C    7.721718   6.537803   4.247374   5.107914   4.919581
    12  C    6.950678   5.750985   3.773701   4.288502   3.795110
    13  N    6.398694   5.661604   3.662234   5.024558   6.086295
    14  C    6.117992   5.210402   2.909398   4.314393   5.191299
    15  H    3.571471   2.711005   1.099458   2.171336   3.463358
    16  H    3.548509   2.714343   3.452046   2.197744   1.096937
    17  H    5.739720   4.660174   3.926969   3.444008   2.155456
    18  H    8.803746   7.614137   5.352602   6.171853   5.869088
    19  H    7.545350   6.358823   4.648028   4.918247   4.126244
                    6          7          8          9         10
     6  C    0.000000
     7  C    1.436272   0.000000
     8  C    2.494256   1.451207   0.000000
     9  C    3.813672   2.495956   1.462340   0.000000
    10  C    4.465343   3.029328   2.603697   1.433436   0.000000
    11  C    3.786843   2.455732   2.812706   2.363063   1.481381
    12  C    2.530070   1.440732   2.470553   2.797454   2.578642
    13  N    6.044109   4.962327   3.573066   2.676992   3.541961
    14  C    4.979516   3.814618   2.485295   1.477099   2.474594
    15  H    3.927433   3.467679   2.187394   2.798086   4.231310
    16  H    2.168490   3.464515   3.975120   5.436097   6.384354
    17  H    1.098998   2.186233   3.482436   4.680466   5.096287
    18  H    4.639051   3.425328   3.918587   3.382769   2.217197
    19  H    2.745490   2.181200   3.461342   3.898357   3.567040
                   11         12         13         14         15
    11  C    0.000000
    12  C    1.388472   0.000000
    13  N    4.892946   5.473685   0.000000
    14  C    3.739665   4.273476   1.200209   0.000000
    15  H    4.885899   4.653808   2.965301   2.546523   0.000000
    16  H    5.906663   4.695280   7.109299   6.258163   4.358344
    17  H    4.139909   2.759799   7.055316   5.950108   5.026409
    18  H    1.107433   2.110334   5.758015   4.661805   5.986176
    19  H    2.181279   1.100934   6.574593   5.374385   5.607314
                   16         17         18         19
    16  H    0.000000
    17  H    2.502145   0.000000
    18  H    6.800590   4.792388   0.000000
    19  H    4.845106   2.516602   2.440014   0.000000
 Stoichiometry    C12H5N2(1-)
 Framework group  C1[X(C12H5N2)]
 Deg. of freedom    51
 Full point group                 C1      NOp   1
 Largest Abelian subgroup         C1      NOp   1
 Largest concise Abelian subgroup C1      NOp   1
                         Standard orientation:                         
 ---------------------------------------------------------------------
 Center     Atomic      Atomic             Coordinates (Angstroms)
 Number     Number       Type             X           Y           Z
 ---------------------------------------------------------------------
      1          7           0       -4.427172    1.036383    0.001426
      2          6           0       -3.343189    0.522221   -0.000212
      3          6           0       -0.856379    0.658104    0.000727
      4          6           0       -2.027982   -0.117377   -0.000108
      5          6           0       -1.941795   -1.556718   -0.000905
      6          6           0       -0.696263   -2.165367   -0.001009
      7          6           0        0.517022   -1.396720   -0.000378
      8          6           0        0.444607    0.052678    0.000443
      9          6           0        1.701354    0.800358    0.000331
     10          6           0        3.038110    0.282844    0.000708
     11          6           0        2.964595   -1.196712    0.001258
     12          6           0        1.828011   -1.994227   -0.000241
     13          7           0        1.491044    3.469075   -0.001376
     14          6           0        1.564922    2.271142   -0.000698
     15          1           0       -0.928780    1.755176    0.001422
     16          1           0       -2.864696   -2.149614   -0.001458
     17          1           0       -0.623392   -3.261946   -0.001594
     18          1           0        3.924120   -1.749629    0.002587
     19          1           0        1.887570   -3.093549   -0.000802
 ---------------------------------------------------------------------
 Rotational constants (GHZ):      1.0818044      0.5592468      0.3686636

 **********************************************************************

            Population analysis using the SCF density.

 **********************************************************************

 Orbital symmetries:
       Occupied  (A) (A) (A) (A) (A) (A) (A) (A) (A) (A) (A) (A)
                 (A) (A) (A) (A) (A) (A) (A) (A) (A) (A) (A) (A)
                 (A) (A) (A) (A) (A) (A) (A) (A) (A) (A) (A) (A)
                 (A) (A) (A) (A) (A) (A) (A) (A) (A) (A)
       Virtual   (A) (A) (A) (A) (A) (A) (A) (A) (A) (A) (A) (A)
                 (A) (A) (A) (A) (A) (A) (A) (A) (A) (A) (A) (A)
                 (A) (A) (A) (A) (A)
 The electronic state is 1-A.
 Alpha  occ. eigenvalues --  -14.00132 -13.93017  -9.91508  -9.90522  -9.88450
 Alpha  occ. eigenvalues --   -9.88438  -9.88092  -9.87192  -9.86997  -9.84406
 Alpha  occ. eigenvalues --   -9.83898  -9.82543  -9.81786  -9.67621  -0.73499
 Alpha  occ. eigenvalues --   -0.68388  -0.67343  -0.61906  -0.58776  -0.54454
 Alpha  occ. eigenvalues --   -0.51885  -0.44974  -0.42688  -0.40347  -0.35626
 Alpha  occ. eigenvalues --   -0.33308  -0.28946  -0.27696  -0.25289  -0.24725
 Alpha  occ. eigenvalues --   -0.22155  -0.21330  -0.18853  -0.17187  -0.16958
 Alpha  occ. eigenvalues --   -0.16127  -0.14418  -0.13113  -0.12886  -0.10217
 Alpha  occ. eigenvalues --   -0.09965  -0.07748  -0.07745  -0.02520   0.01256
 Alpha  occ. eigenvalues --    0.10765
 Alpha virt. eigenvalues --    0.16540   0.20916   0.24945   0.24967   0.29633
 Alpha virt. eigenvalues --    0.31149   0.34459   0.37566   0.42087   0.46028
 Alpha virt. eigenvalues --    0.48140   0.50154   0.52921   0.54712   0.56740
 Alpha virt. eigenvalues --    0.57412   0.58386   0.62715   0.66924   0.68437
 Alpha virt. eigenvalues --    0.70664   0.74537   0.78269   0.82134   0.83856
 Alpha virt. eigenvalues --    0.91243   0.93279   1.05728   1.10706
          Condensed to atoms (all electrons):
               1          2          3          4          5          6
     1  N    6.584586   0.661086  -0.000093  -0.010845  -0.000088  -0.000001
     2  C    0.661086   4.933233  -0.028667   0.418719  -0.028899   0.000860
     3  C   -0.000093  -0.028667   4.835268   0.506232  -0.029307  -0.009750
     4  C   -0.010845   0.418719   0.506232   4.768837   0.462972  -0.029267
     5  C   -0.000088  -0.028899  -0.029307   0.462972   4.835117   0.527926
     6  C   -0.000001   0.000860  -0.009750  -0.029267   0.527926   4.824187
     7  C    0.000000   0.000014  -0.027329  -0.009476  -0.027731   0.470964
     8  C   -0.000001   0.000828   0.470661  -0.026094  -0.008455  -0.025996
     9  C    0.000000  -0.000005  -0.024222   0.000645   0.000028   0.000736
    10  C    0.000000   0.000000   0.000520  -0.000005   0.000000   0.000002
    11  C    0.000000   0.000000   0.000039   0.000000  -0.000008   0.000735
    12  C    0.000000   0.000000   0.000869   0.000034   0.000754  -0.027547
    13  N    0.000000   0.000000  -0.000219   0.000001   0.000000   0.000000
    14  C    0.000000   0.000000  -0.005057   0.000017  -0.000001  -0.000007
    15  H    0.000059  -0.003458   0.385324  -0.025405   0.001245   0.000027
    16  H    0.000056  -0.003035   0.001201  -0.024808   0.388192  -0.024651
    17  H    0.000000  -0.000017   0.000022   0.001408  -0.026238   0.385665
    18  H    0.000000   0.000000   0.000001   0.000000   0.000000  -0.000021
    19  H    0.000000   0.000000  -0.000017  -0.000001   0.000011  -0.003392
               7          8          9         10         11         12
     1  N    0.000000  -0.000001   0.000000   0.000000   0.000000   0.000000
     2  C    0.000014   0.000828  -0.000005   0.000000   0.000000   0.000000
     3  C   -0.027329   0.470661  -0.024222   0.000520   0.000039   0.000869
     4  C   -0.009476  -0.026094   0.000645  -0.000005   0.000000   0.000034
     5  C   -0.027731  -0.008455   0.000028   0.000000  -0.000008   0.000754
     6  C    0.470964  -0.025996   0.000736   0.000002   0.000735  -0.027547
     7  C    4.807326   0.457900  -0.029704  -0.005759  -0.029625   0.463361
     8  C    0.457900   4.823794   0.440108  -0.017575  -0.012190  -0.028965
     9  C   -0.029704   0.440108   4.902372   0.441566  -0.029203  -0.012614
    10  C   -0.005759  -0.017575   0.441566   5.471208   0.394133  -0.017111
    11  C   -0.029625  -0.012190  -0.029203   0.394133   4.916763   0.517136
    12  C    0.463361  -0.028965  -0.012614  -0.017111   0.517136   4.870099
    13  N   -0.000001   0.000091  -0.010844  -0.000078  -0.000002   0.000000
    14  C    0.000792  -0.037746   0.403067  -0.034067   0.001473   0.000005
    15  H    0.001280  -0.024659  -0.003232   0.000017   0.000000  -0.000017
    16  H    0.001330   0.000028   0.000000   0.000000   0.000000  -0.000015
    17  H   -0.025012   0.001233  -0.000015   0.000000   0.000016  -0.003276
    18  H    0.001565   0.000002   0.002158  -0.031290   0.378633  -0.035927
    19  H   -0.027703   0.001246   0.000082   0.001028  -0.023809   0.381228
              13         14         15         16         17         18
     1  N    0.000000   0.000000   0.000059   0.000056   0.000000   0.000000
     2  C    0.000000   0.000000  -0.003458  -0.003035  -0.000017   0.000000
     3  C   -0.000219  -0.005057   0.385324   0.001201   0.000022   0.000001
     4  C    0.000001   0.000017  -0.025405  -0.024808   0.001408   0.000000
     5  C    0.000000  -0.000001   0.001245   0.388192  -0.026238   0.000000
     6  C    0.000000  -0.000007   0.000027  -0.024651   0.385665  -0.000021
     7  C   -0.000001   0.000792   0.001280   0.001330  -0.025012   0.001565
     8  C    0.000091  -0.037746  -0.024659   0.000028   0.001233   0.000002
     9  C   -0.010844   0.403067  -0.003232   0.000000  -0.000015   0.002158
    10  C   -0.000078  -0.034067   0.000017   0.000000   0.000000  -0.031290
    11  C   -0.000002   0.001473   0.000000   0.000000   0.000016   0.378633
    12  C    0.000000   0.000005  -0.000017  -0.000015  -0.003276  -0.035927
    13  N    6.632592   0.658609  -0.000103   0.000000   0.000000   0.000000
    14  C    0.658609   4.975013   0.002120   0.000000   0.000000  -0.000014
    15  H   -0.000103   0.002120   0.584269  -0.000032   0.000002   0.000000
    16  H    0.000000   0.000000  -0.000032   0.604511  -0.003783   0.000000
    17  H    0.000000   0.000000   0.000002  -0.003783   0.611137  -0.000002
    18  H    0.000000  -0.000014   0.000000   0.000000  -0.000002   0.663133
    19  H    0.000000   0.000001   0.000000  -0.000001   0.001067  -0.004081
              19
     1  N    0.000000
     2  C    0.000000
     3  C   -0.000017
     4  C   -0.000001
     5  C    0.000011
     6  C   -0.003392
     7  C   -0.027703
     8  C    0.001246
     9  C    0.000082
    10  C    0.001028
    11  C   -0.023809
    12  C    0.381228
    13  N    0.000000
    14  C    0.000001
    15  H    0.000000
    16  H   -0.000001
    17  H    0.001067
    18  H   -0.004081
    19  H    0.635430
 Mulliken charges:
               1
     1  N   -0.234759
     2  C    0.049341
     3  C   -0.075476
     4  C   -0.032964
     5  C   -0.095519
     6  C   -0.090470
     7  C   -0.022191
     8  C   -0.014210
     9  C   -0.080924
    10  C   -0.202589
    11  C   -0.114091
    12  C   -0.108014
    13  N   -0.280045
    14  C    0.035794
    15  H    0.082562
    16  H    0.061008
    17  H    0.057794
    18  H    0.025844
    19  H    0.038911
 Sum of Mulliken charges =  -1.00000
 Mulliken charges with hydrogens summed into heavy atoms:
               1
     1  N   -0.234759
     2  C    0.049341
     3  C    0.007085
     4  C   -0.032964
     5  C   -0.034510
     6  C   -0.032676
     7  C   -0.022191
     8  C   -0.014210
     9  C   -0.080924
    10  C   -0.202589
    11  C   -0.088247
    12  C   -0.069103
    13  N   -0.280045
    14  C    0.035794
 Electronic spatial extent (au):  <R**2>=           2771.0214
 Charge=             -1.0000 electrons
 Dipole moment (field-independent basis, Debye):
    X=             -3.7376    Y=             -5.7901    Z=             -0.0011  Tot=              6.8917
 Quadrupole moment (field-independent basis, Debye-Ang):
   XX=           -124.0038   YY=            -94.4949   ZZ=            -74.1484
   XY=             -3.0895   XZ=              0.0103   YZ=              0.0081
 Traceless Quadrupole moment (field-independent basis, Debye-Ang):
   XX=            -26.4548   YY=              3.0541   ZZ=             23.4007
   XY=             -3.0895   XZ=              0.0103   YZ=              0.0081
 Octapole moment (field-independent basis, Debye-Ang**2):
  XXX=             25.0060  YYY=            -73.8137  ZZZ=              0.0006  XYY=            -29.7907
  XXY=            -51.6390  XXZ=             -0.0611  XZZ=             -2.7977  YZZ=              4.9559
  YYZ=              0.0251  XYZ=              0.0242
 Hexadecapole moment (field-independent basis, Debye-Ang**3):
 XXXX=          -3151.8692 YYYY=          -1486.9403 ZZZZ=            -58.3553 XXXY=            112.2254
 XXXZ=              0.2111 YYYX=           -102.9597 YYYZ=              0.1454 ZZZX=             -0.0219
 ZZZY=             -0.0087 XXYY=           -663.2722 XXZZ=           -387.0538 YYZZ=           -216.1914
 XXYZ=             -0.0433 YYXZ=              0.0563 ZZXY=              0.4197
 N-N= 6.957200558662D+02 E-N=-2.713536868591D+03  KE= 5.547456539806D+02
 1\1\GINC-N015\FOpt\RB3LYP\STO-3G\C12H5N2(1-)\R2532\15-Jun-2021\0\\#N B
 3LYP/STO-3G OPT\\2Naph\\-1,1\N,1.1295613304,-0.233887595,0.0425312858\
 C,2.3290859293,-0.2110032068,0.0437068807\C,4.539988568,-1.357561779,0
 .0420085752\C,3.790961158,-0.1688721304,0.0430396033\C,4.4614498523,1.
 1076768444,0.0434808328\C,5.8470868634,1.1502505631,0.043050935\C,6.63
 69192582,-0.049350439,0.0422091021\C,5.97484823,-1.340730419,0.0417402
 728\C,6.8129198575,-2.5390929893,0.0416237094\C,8.2442312087,-2.617106
 6635,0.0407032369\C,8.7856849612,-1.2382242691,0.039839382\C,8.0776406
 666,-0.0438515068,0.0415190771\N,5.5237121059,-4.8852010371,0.04400436
 95\C,6.0837018352,-3.8236400698,0.0430306703\H,4.0228235087,-2.3277930
 648,0.0415864452\H,3.8640319241,2.0276564064,0.0441925823\H,6.36447812
 47,2.1198399727,0.0433631616\H,9.8877001835,-1.1288310682,0.0380793997
 \H,8.5840244342,0.9337124512,0.0418104783\\Version=ES64L-G09RevD.01\St
 ate=1-A\HF=-562.5194344\RMSD=3.615e-09\RMSF=2.697e-05\Dipole=-0.403566
 8,2.6811885,0.0003865\Quadrupole=-14.2359385,-3.1618832,17.3978217,9.7
 441707,0.0068651,0.0064994\PG=C01 [X(C12H5N2)]\\@


 IF AT FIRST YOU DON'T SUCCEED, TRY, TRY AGAIN.
 THEN GIVE UP;
 THERE'S NO USE BEING A DAMN FOOL ABOUT IT.

                                 -- W. C. FIELDS
 Job cpu time:       0 days  0 hours  5 minutes 24.6 seconds.
 File lengths (MBytes):  RWF=      5 Int=      0 D2E=      0 Chk=      2 Scr=      1
 Normal termination of Gaussian 09 at Tue Jun 15 11:14:19 2021.
