 Entering Gaussian System, Link 0=/usr/local/apps//g09/g09
 Input=36.com
 Output=36.out
 Initial command:
 /usr/local/apps//g09/l1.exe "/tmp/bnp.472633.sequoia/Gau-13590.inp" -scrdir="/tmp/bnp.472633.sequoia/"
 Entering Link 1 = /usr/local/apps//g09/l1.exe PID=     13591.
  
 Copyright (c) 1988,1990,1992,1993,1995,1998,2003,2009,2013,
            Gaussian, Inc.  All Rights Reserved.
  
 This is part of the Gaussian(R) 09 program.  It is based on
 the Gaussian(R) 03 system (copyright 2003, Gaussian, Inc.),
 the Gaussian(R) 98 system (copyright 1998, Gaussian, Inc.),
 the Gaussian(R) 94 system (copyright 1995, Gaussian, Inc.),
 the Gaussian 92(TM) system (copyright 1992, Gaussian, Inc.),
 the Gaussian 90(TM) system (copyright 1990, Gaussian, Inc.),
 the Gaussian 88(TM) system (copyright 1988, Gaussian, Inc.),
 the Gaussian 86(TM) system (copyright 1986, Carnegie Mellon
 University), and the Gaussian 82(TM) system (copyright 1983,
 Carnegie Mellon University). Gaussian is a federally registered
 trademark of Gaussian, Inc.
  
 This software contains proprietary and confidential information,
 including trade secrets, belonging to Gaussian, Inc.
  
 This software is provided under written license and may be
 used, copied, transmitted, or stored only in accord with that
 written license.
  
 The following legend is applicable only to US Government
 contracts under FAR:
  
                    RESTRICTED RIGHTS LEGEND
  
 Use, reproduction and disclosure by the US Government is
 subject to restrictions as set forth in subparagraphs (a)
 and (c) of the Commercial Computer Software - Restricted
 Rights clause in FAR 52.227-19.
  
 Gaussian, Inc.
 340 Quinnipiac St., Bldg. 40, Wallingford CT 06492
  
  
 ---------------------------------------------------------------
 Warning -- This program may not be used in any manner that
 competes with the business of Gaussian, Inc. or will provide
 assistance to any competitor of Gaussian, Inc.  The licensee
 of this program is prohibited from giving any competitor of
 Gaussian, Inc. access to this program.  By using this program,
 the user acknowledges that Gaussian, Inc. is engaged in the
 business of creating and licensing software in the field of
 computational chemistry and represents and warrants to the
 licensee that it is not a competitor of Gaussian, Inc. and that
 it will not use this program in any manner prohibited above.
 ---------------------------------------------------------------
  

 Cite this work as:
 Gaussian 09, Revision D.01,
 M. J. Frisch, G. W. Trucks, H. B. Schlegel, G. E. Scuseria, 
 M. A. Robb, J. R. Cheeseman, G. Scalmani, V. Barone, B. Mennucci, 
 G. A. Petersson, H. Nakatsuji, M. Caricato, X. Li, H. P. Hratchian, 
 A. F. Izmaylov, J. Bloino, G. Zheng, J. L. Sonnenberg, M. Hada, 
 M. Ehara, K. Toyota, R. Fukuda, J. Hasegawa, M. Ishida, T. Nakajima, 
 Y. Honda, O. Kitao, H. Nakai, T. Vreven, J. A. Montgomery, Jr., 
 J. E. Peralta, F. Ogliaro, M. Bearpark, J. J. Heyd, E. Brothers, 
 K. N. Kudin, V. N. Staroverov, T. Keith, R. Kobayashi, J. Normand, 
 K. Raghavachari, A. Rendell, J. C. Burant, S. S. Iyengar, J. Tomasi, 
 M. Cossi, N. Rega, J. M. Millam, M. Klene, J. E. Knox, J. B. Cross, 
 V. Bakken, C. Adamo, J. Jaramillo, R. Gomperts, R. E. Stratmann, 
 O. Yazyev, A. J. Austin, R. Cammi, C. Pomelli, J. W. Ochterski, 
 R. L. Martin, K. Morokuma, V. G. Zakrzewski, G. A. Voth, 
 P. Salvador, J. J. Dannenberg, S. Dapprich, A. D. Daniels, 
 O. Farkas, J. B. Foresman, J. V. Ortiz, J. Cioslowski, 
 and D. J. Fox, Gaussian, Inc., Wallingford CT, 2013.
 
 ******************************************
 Gaussian 09:  ES64L-G09RevD.01 24-Apr-2013
                15-Jun-2021 
 ******************************************
 -------------------
 #N B3LYP/STO-3G OPT
 -------------------
 1/14=-1,18=20,19=15,26=3,38=1/1,3;
 2/9=110,12=2,17=6,18=5,40=1/2;
 3/6=3,11=2,16=1,25=1,30=1,71=1,74=-5/1,2,3;
 4//1;
 5/5=2,38=5/2;
 6/7=2,8=2,9=2,10=2,28=1/1;
 7//1,2,3,16;
 1/14=-1,18=20,19=15,26=3/3(2);
 2/9=110/2;
 99//99;
 2/9=110/2;
 3/6=3,11=2,16=1,25=1,30=1,71=1,74=-5/1,2,3;
 4/5=5,16=3,69=1/1;
 5/5=2,38=5/2;
 7//1,2,3,16;
 1/14=-1,18=20,19=15,26=3/3(-5);
 2/9=110/2;
 6/7=2,8=2,9=2,10=2,19=2,28=1/1;
 99/9=1/99;
 -----
 2Naph
 -----
 Symbolic Z-matrix:
 Charge = -1 Multiplicity = 1
 N                     4.05866   1.33473  -1.97502 
 C                     4.71065   0.93576  -1.10215 
 C                     5.46087   0.87316   1.24041 
 C                     5.56718   0.41558  -0.08419 
 C                     6.52113  -0.54224  -0.40823 
 C                     7.44322  -0.93554   0.54898 
 C                     7.55773  -0.21859   1.74811 
 C                     6.46438   0.53785   2.18079 
 C                     6.4285    1.00904   3.49614 
 C                     7.55561   0.87889   4.32225 
 C                     8.7427    0.37521   3.79301 
 C                     8.75555  -0.17003   2.50274 
 N                     11.02038  -0.58929   1.31642 
 C                     10.02462  -0.43578   1.88811 
 H                     6.58613  -0.95737  -1.41454 
 H                     8.08636  -1.79032   0.35248 
 H                     5.53589   1.48729   3.89888 
 H                     7.53101   1.25454   5.33858 
 H                     9.66265   0.43168   4.37777 
 

 GradGradGradGradGradGradGradGradGradGradGradGradGradGradGradGradGradGrad
 Berny optimization.
 Initialization pass.
                           ----------------------------
                           !    Initial Parameters    !
                           ! (Angstroms and Degrees)  !
 --------------------------                            --------------------------
 ! Name  Definition              Value          Derivative Info.                !
 --------------------------------------------------------------------------------
 ! R1    R(1,2)                  1.1602         estimate D2E/DX2                !
 ! R2    R(2,4)                  1.4285         estimate D2E/DX2                !
 ! R3    R(3,4)                  1.4054         estimate D2E/DX2                !
 ! R4    R(3,8)                  1.4155         estimate D2E/DX2                !
 ! R5    R(4,5)                  1.3901         estimate D2E/DX2                !
 ! R6    R(5,6)                  1.3861         estimate D2E/DX2                !
 ! R7    R(5,15)                 1.0905         estimate D2E/DX2                !
 ! R8    R(6,7)                  1.4018         estimate D2E/DX2                !
 ! R9    R(6,16)                 1.0876         estimate D2E/DX2                !
 ! R10   R(7,8)                  1.3982         estimate D2E/DX2                !
 ! R11   R(7,12)                 1.4165         estimate D2E/DX2                !
 ! R12   R(8,9)                  1.3977         estimate D2E/DX2                !
 ! R13   R(9,10)                 1.4035         estimate D2E/DX2                !
 ! R14   R(9,17)                 1.0898         estimate D2E/DX2                !
 ! R15   R(10,11)                1.3939         estimate D2E/DX2                !
 ! R16   R(10,18)                1.0838         estimate D2E/DX2                !
 ! R17   R(11,12)                1.4008         estimate D2E/DX2                !
 ! R18   R(11,19)                1.0915         estimate D2E/DX2                !
 ! R19   R(12,14)                1.4349         estimate D2E/DX2                !
 ! R20   R(13,14)                1.1584         estimate D2E/DX2                !
 ! A1    A(4,3,8)              119.6939         estimate D2E/DX2                !
 ! A2    A(2,4,3)              120.5125         estimate D2E/DX2                !
 ! A3    A(2,4,5)              119.7539         estimate D2E/DX2                !
 ! A4    A(3,4,5)              119.7313         estimate D2E/DX2                !
 ! A5    A(4,5,6)              119.4098         estimate D2E/DX2                !
 ! A6    A(4,5,15)             121.2181         estimate D2E/DX2                !
 ! A7    A(6,5,15)             119.3143         estimate D2E/DX2                !
 ! A8    A(5,6,7)              119.9978         estimate D2E/DX2                !
 ! A9    A(5,6,16)             119.4475         estimate D2E/DX2                !
 ! A10   A(7,6,16)             120.5445         estimate D2E/DX2                !
 ! A11   A(6,7,8)              118.5257         estimate D2E/DX2                !
 ! A12   A(6,7,12)             122.8412         estimate D2E/DX2                !
 ! A13   A(8,7,12)             118.5447         estimate D2E/DX2                !
 ! A14   A(3,8,7)              118.486          estimate D2E/DX2                !
 ! A15   A(3,8,9)              121.8126         estimate D2E/DX2                !
 ! A16   A(7,8,9)              119.5848         estimate D2E/DX2                !
 ! A17   A(8,9,10)             120.137          estimate D2E/DX2                !
 ! A18   A(8,9,17)             121.1152         estimate D2E/DX2                !
 ! A19   A(10,9,17)            118.7466         estimate D2E/DX2                !
 ! A20   A(9,10,11)            119.6004         estimate D2E/DX2                !
 ! A21   A(9,10,18)            120.1056         estimate D2E/DX2                !
 ! A22   A(11,10,18)           120.0406         estimate D2E/DX2                !
 ! A23   A(10,11,12)           119.8798         estimate D2E/DX2                !
 ! A24   A(10,11,19)           119.7133         estimate D2E/DX2                !
 ! A25   A(12,11,19)           120.3883         estimate D2E/DX2                !
 ! A26   A(7,12,11)            119.754          estimate D2E/DX2                !
 ! A27   A(7,12,14)            120.886          estimate D2E/DX2                !
 ! A28   A(11,12,14)           118.3428         estimate D2E/DX2                !
 ! A29   L(1,2,4,15,-1)        176.8406         estimate D2E/DX2                !
 ! A30   L(12,14,13,15,-1)     176.5889         estimate D2E/DX2                !
 ! A31   L(1,2,4,15,-2)        178.6637         estimate D2E/DX2                !
 ! A32   L(12,14,13,15,-2)     176.1648         estimate D2E/DX2                !
 ! D1    D(8,3,4,2)           -168.4563         estimate D2E/DX2                !
 ! D2    D(8,3,4,5)             10.9846         estimate D2E/DX2                !
 ! D3    D(4,3,8,7)              1.5708         estimate D2E/DX2                !
 ! D4    D(4,3,8,9)            177.6279         estimate D2E/DX2                !
 ! D5    D(2,4,5,6)            173.0162         estimate D2E/DX2                !
 ! D6    D(2,4,5,15)            -4.2015         estimate D2E/DX2                !
 ! D7    D(3,4,5,6)             -6.429          estimate D2E/DX2                !
 ! D8    D(3,4,5,15)           176.3533         estimate D2E/DX2                !
 ! D9    D(4,5,6,7)            -10.7276         estimate D2E/DX2                !
 ! D10   D(4,5,6,16)           170.4228         estimate D2E/DX2                !
 ! D11   D(15,5,6,7)           166.5436         estimate D2E/DX2                !
 ! D12   D(15,5,6,16)          -12.306          estimate D2E/DX2                !
 ! D13   D(5,6,7,8)             23.3119         estimate D2E/DX2                !
 ! D14   D(5,6,7,12)          -153.2165         estimate D2E/DX2                !
 ! D15   D(16,6,7,8)          -157.8513         estimate D2E/DX2                !
 ! D16   D(16,6,7,12)           25.6203         estimate D2E/DX2                !
 ! D17   D(6,7,8,3)            -18.3888         estimate D2E/DX2                !
 ! D18   D(6,7,8,9)            165.464          estimate D2E/DX2                !
 ! D19   D(12,7,8,3)           158.291          estimate D2E/DX2                !
 ! D20   D(12,7,8,9)           -17.8561         estimate D2E/DX2                !
 ! D21   D(6,7,12,11)         -169.4625         estimate D2E/DX2                !
 ! D22   D(6,7,12,14)           22.2642         estimate D2E/DX2                !
 ! D23   D(8,7,12,11)           14.0097         estimate D2E/DX2                !
 ! D24   D(8,7,12,14)         -154.2636         estimate D2E/DX2                !
 ! D25   D(3,8,9,10)          -167.5579         estimate D2E/DX2                !
 ! D26   D(3,8,9,17)            12.0463         estimate D2E/DX2                !
 ! D27   D(7,8,9,10)             8.4569         estimate D2E/DX2                !
 ! D28   D(7,8,9,17)          -171.9389         estimate D2E/DX2                !
 ! D29   D(8,9,10,11)            5.0852         estimate D2E/DX2                !
 ! D30   D(8,9,10,18)          179.3064         estimate D2E/DX2                !
 ! D31   D(17,9,10,11)        -174.5283         estimate D2E/DX2                !
 ! D32   D(17,9,10,18)          -0.3072         estimate D2E/DX2                !
 ! D33   D(9,10,11,12)          -8.926          estimate D2E/DX2                !
 ! D34   D(9,10,11,19)         169.51           estimate D2E/DX2                !
 ! D35   D(18,10,11,12)        176.849          estimate D2E/DX2                !
 ! D36   D(18,10,11,19)         -4.715          estimate D2E/DX2                !
 ! D37   D(10,11,12,7)          -0.6411         estimate D2E/DX2                !
 ! D38   D(10,11,12,14)        167.9285         estimate D2E/DX2                !
 ! D39   D(19,11,12,7)        -179.0664         estimate D2E/DX2                !
 ! D40   D(19,11,12,14)        -10.4969         estimate D2E/DX2                !
 --------------------------------------------------------------------------------
 Trust Radius=3.00D-01 FncErr=1.00D-07 GrdErr=1.00D-06
 Number of steps in this run=    102 maximum allowed number of steps=    114.
 GradGradGradGradGradGradGradGradGradGradGradGradGradGradGradGradGradGrad

                          Input orientation:                          
 ---------------------------------------------------------------------
 Center     Atomic      Atomic             Coordinates (Angstroms)
 Number     Number       Type             X           Y           Z
 ---------------------------------------------------------------------
      1          7           0        4.058660    1.334730   -1.975020
      2          6           0        4.710650    0.935760   -1.102150
      3          6           0        5.460870    0.873160    1.240410
      4          6           0        5.567180    0.415580   -0.084190
      5          6           0        6.521130   -0.542240   -0.408230
      6          6           0        7.443220   -0.935540    0.548980
      7          6           0        7.557730   -0.218590    1.748110
      8          6           0        6.464380    0.537850    2.180790
      9          6           0        6.428500    1.009040    3.496140
     10          6           0        7.555610    0.878890    4.322250
     11          6           0        8.742700    0.375210    3.793010
     12          6           0        8.755550   -0.170030    2.502740
     13          7           0       11.020380   -0.589290    1.316420
     14          6           0       10.024620   -0.435780    1.888110
     15          1           0        6.586130   -0.957370   -1.414540
     16          1           0        8.086360   -1.790320    0.352480
     17          1           0        5.535890    1.487290    3.898880
     18          1           0        7.531010    1.254540    5.338580
     19          1           0        9.662650    0.431680    4.377770
 ---------------------------------------------------------------------
                    Distance matrix (angstroms):
                    1          2          3          4          5
     1  N    0.000000
     2  C    1.160246   0.000000
     3  C    3.538111   2.460556   0.000000
     4  C    2.587607   1.428451   1.405435   0.000000
     5  C    3.470102   2.438001   2.417751   1.390123   0.000000
     6  C    4.793741   3.700667   2.771134   2.397072   1.386068
     7  C    5.340224   4.190748   2.417954   2.778810   2.414351
     8  C    4.867573   3.743207   1.415549   2.439273   2.805858
     9  C    5.971248   4.909241   2.458270   3.729991   4.202280
    10  C    7.217483   6.125451   3.726353   4.856462   5.046504
    11  C    7.492068   6.366650   4.187377   5.011810   4.840197
    12  C    6.661487   5.529848   3.679217   4.147391   3.688485
    13  N    7.937315   6.927334   5.749147   5.719166   4.818701
    14  C    7.324695   6.249884   4.791728   4.948086   4.190340
    15  H    3.457740   2.683087   3.415525   2.166352   1.090513
    16  H    5.604066   4.576339   3.843923   3.376824   2.141571
    17  H    6.058728   5.098579   2.729514   4.124850   4.862189
    18  H    8.096443   7.038399   4.607160   5.828114   6.105252
    19  H    8.519281   7.403102   5.262403   6.056585   5.807191
                    6          7          8          9         10
     6  C    0.000000
     7  C    1.401800   0.000000
     8  C    2.406618   1.398152   0.000000
     9  C    3.673799   2.416163   1.397660   0.000000
    10  C    4.188359   2.798332   2.427538   1.403486   0.000000
    11  C    3.732351   2.436877   2.795791   2.417725   1.393905
    12  C    2.474953   1.416544   2.419547   2.791453   2.418823
    13  N    3.674905   3.509091   4.772286   5.328339   4.816139
    14  C    2.950704   2.480387   3.702557   4.195872   3.708019
    15  H    2.142543   3.390008   3.895755   5.292107   6.101025
    16  H    1.087608   2.167387   3.375487   4.524104   4.813050
    17  H    4.553004   3.409351   2.171489   1.089805   2.151432
    18  H    5.267298   3.881018   3.409249   2.161107   1.083810
    19  H    4.631932   3.430547   3.881614   3.401521   2.154692
                   11         12         13         14         15
    11  C    0.000000
    12  C    1.400803   0.000000
    13  N    3.500226   2.590866   0.000000
    14  C    2.435091   1.434898   1.158418   0.000000
    15  H    5.791817   4.546578   5.220747   4.796120   0.000000
    16  H    4.117954   2.774306   3.313627   2.819537   2.463099
    17  H    3.395815   3.880996   6.407879   5.281107   5.942373
    18  H    2.151790   3.401601   5.634996   4.580504   7.168680
    19  H    1.091532   2.168092   3.501096   2.661187   6.704125
                   16         17         18         19
    16  H    0.000000
    17  H    5.461188   0.000000
    18  H    5.868627   2.471318   0.000000
    19  H    4.860549   4.286467   2.478738   0.000000
 Stoichiometry    C12H5N2(1-)
 Framework group  C1[X(C12H5N2)]
 Deg. of freedom    51
 Full point group                 C1      NOp   1
 Largest Abelian subgroup         C1      NOp   1
 Largest concise Abelian subgroup C1      NOp   1
                         Standard orientation:                         
 ---------------------------------------------------------------------
 Center     Atomic      Atomic             Coordinates (Angstroms)
 Number     Number       Type             X           Y           Z
 ---------------------------------------------------------------------
      1          7           0       -4.694808   -0.185808   -0.644846
      2          6           0       -3.585331   -0.096210   -0.317428
      3          6           0       -1.470861    1.121513   -0.000402
      4          6           0       -2.213618   -0.068890    0.080228
      5          6           0       -1.605231   -1.231318    0.539649
      6          6           0       -0.241102   -1.234245    0.785269
      7          6           0        0.549397   -0.156419    0.362843
      8          6           0       -0.064953    1.083036    0.159977
      9          6           0        0.721994    2.231849    0.039992
     10          6           0        2.117998    2.122906   -0.055289
     11          6           0        2.706231    0.861830   -0.136761
     12          6           0        1.928082   -0.285486    0.064237
     13          7           0        2.866160   -2.600811   -0.622689
     14          6           0        2.490758   -1.559390   -0.281443
     15          1           0       -2.172783   -2.153645    0.667774
     16          1           0        0.209535   -2.085911    1.289730
     17          1           0        0.270519    3.223343    0.011968
     18          1           0        2.726918    3.013399   -0.159613
     19          1           0        3.766152    0.774085   -0.382344
 ---------------------------------------------------------------------
 Rotational constants (GHZ):      1.3587227      0.4950965      0.3785290
 Standard basis: STO-3G (5D, 7F)
 There are    75 symmetry adapted cartesian basis functions of A   symmetry.
 There are    75 symmetry adapted basis functions of A   symmetry.
    75 basis functions,   225 primitive gaussians,    75 cartesian basis functions
    46 alpha electrons       46 beta electrons
       nuclear repulsion energy       709.0053999999 Hartrees.
 NAtoms=   19 NActive=   19 NUniq=   19 SFac= 1.00D+00 NAtFMM=   60 NAOKFM=F Big=F
 Integral buffers will be    131072 words long.
 Raffenetti 2 integral format.
 Two-electron integral symmetry is turned on.
 One-electron integrals computed using PRISM.
 NBasis=    75 RedAO= T EigKep=  1.54D-01  NBF=    75
 NBsUse=    75 1.00D-06 EigRej= -1.00D+00 NBFU=    75
 ExpMin= 1.69D-01 ExpMax= 9.91D+01 ExpMxC= 9.91D+01 IAcc=1 IRadAn=         1 AccDes= 0.00D+00
 Harris functional with IExCor=  402 and IRadAn=       1 diagonalized for initial guess.
 HarFok:  IExCor=  402 AccDes= 0.00D+00 IRadAn=         1 IDoV= 1 UseB2=F ITyADJ=14
 ICtDFT=  3500011 ScaDFX=  1.000000  1.000000  1.000000  1.000000
 FoFCou: FMM=F IPFlag=           0 FMFlag=      100000 FMFlg1=           0
         NFxFlg=           0 DoJE=T BraDBF=F KetDBF=T FulRan=T
         wScrn=  0.000000 ICntrl=     500 IOpCl=  0 I1Cent=   200000004 NGrid=           0
         NMat0=    1 NMatS0=      1 NMatT0=    0 NMatD0=    1 NMtDS0=    0 NMtDT0=    0
 Petite list used in FoFCou.
 Keep R1 ints in memory in canonical form, NReq=4993994.
 Requested convergence on RMS density matrix=1.00D-08 within 128 cycles.
 Requested convergence on MAX density matrix=1.00D-06.
 Requested convergence on             energy=1.00D-06.
 No special actions if energy rises.
 Integral accuracy reduced to 1.0D-05 until final iterations.
 EnCoef did     4 forward-backward iterations
 EnCoef did     6 forward-backward iterations
 EnCoef did     3 forward-backward iterations
 Initial convergence to 1.0D-05 achieved.  Increase integral accuracy.
 SCF Done:  E(RB3LYP) =  -562.473478844     A.U. after   23 cycles
            NFock= 23  Conv=0.95D-08     -V/T= 2.0127

 **********************************************************************

            Population analysis using the SCF density.

 **********************************************************************

 Orbital symmetries:
       Occupied  (A) (A) (A) (A) (A) (A) (A) (A) (A) (A) (A) (A)
                 (A) (A) (A) (A) (A) (A) (A) (A) (A) (A) (A) (A)
                 (A) (A) (A) (A) (A) (A) (A) (A) (A) (A) (A) (A)
                 (A) (A) (A) (A) (A) (A) (A) (A) (A) (A)
       Virtual   (A) (A) (A) (A) (A) (A) (A) (A) (A) (A) (A) (A)
                 (A) (A) (A) (A) (A) (A) (A) (A) (A) (A) (A) (A)
                 (A) (A) (A) (A) (A)
 The electronic state is 1-A.
 Alpha  occ. eigenvalues --  -13.98187 -13.94088  -9.89138  -9.88950  -9.88099
 Alpha  occ. eigenvalues --   -9.86565  -9.86178  -9.86122  -9.85328  -9.84059
 Alpha  occ. eigenvalues --   -9.83865  -9.83171  -9.82852  -9.68752  -0.73704
 Alpha  occ. eigenvalues --   -0.70232  -0.68321  -0.62659  -0.58509  -0.55728
 Alpha  occ. eigenvalues --   -0.51356  -0.45719  -0.42709  -0.40318  -0.35646
 Alpha  occ. eigenvalues --   -0.31950  -0.30865  -0.28260  -0.26212  -0.22531
 Alpha  occ. eigenvalues --   -0.21835  -0.21464  -0.19988  -0.17597  -0.16583
 Alpha  occ. eigenvalues --   -0.15409  -0.14793  -0.14036  -0.13084  -0.11340
 Alpha  occ. eigenvalues --   -0.10360  -0.09723  -0.06221  -0.03484   0.02124
 Alpha  occ. eigenvalues --    0.11771
 Alpha virt. eigenvalues --    0.17381   0.22100   0.27459   0.28288   0.29967
 Alpha virt. eigenvalues --    0.31785   0.34548   0.39761   0.45903   0.47988
 Alpha virt. eigenvalues --    0.51716   0.52025   0.56421   0.59314   0.60214
 Alpha virt. eigenvalues --    0.61505   0.65024   0.65926   0.71373   0.73341
 Alpha virt. eigenvalues --    0.74296   0.78181   0.81834   0.85537   0.88512
 Alpha virt. eigenvalues --    0.98204   0.98799   1.15379   1.19169
          Condensed to atoms (all electrons):
               1          2          3          4          5          6
     1  N    6.612382   0.687094   0.000027  -0.011902  -0.000149  -0.000001
     2  C    0.687094   4.908012  -0.034985   0.424673  -0.039161   0.001046
     3  C    0.000027  -0.034985   5.390856   0.478801  -0.028666  -0.014322
     4  C   -0.011902   0.424673   0.478801   4.825737   0.470119  -0.034697
     5  C   -0.000149  -0.039161  -0.028666   0.470119   4.849726   0.524415
     6  C   -0.000001   0.001046  -0.014322  -0.034697   0.524415   4.861463
     7  C    0.000000   0.000014  -0.028603  -0.012585  -0.030180   0.486908
     8  C   -0.000003   0.001265   0.443134  -0.028547  -0.011425  -0.035572
     9  C    0.000000  -0.000003  -0.035315   0.001230  -0.000010   0.001000
    10  C    0.000000   0.000000   0.000911  -0.000014   0.000000   0.000059
    11  C    0.000000   0.000000   0.000034   0.000002  -0.000010   0.000881
    12  C    0.000000   0.000000   0.001131   0.000062   0.000849  -0.031802
    13  N    0.000000   0.000000   0.000000   0.000000   0.000000  -0.000094
    14  C    0.000000   0.000000  -0.000016  -0.000001   0.000019  -0.003794
    15  H    0.000061  -0.003059   0.001504  -0.024956   0.383182  -0.027225
    16  H    0.000000  -0.000022   0.000089   0.001546  -0.026844   0.390391
    17  H    0.000000  -0.000002  -0.001681   0.000019   0.000000  -0.000019
    18  H    0.000000   0.000000  -0.000022   0.000000   0.000000   0.000001
    19  H    0.000000   0.000000   0.000001   0.000000   0.000000  -0.000020
               7          8          9         10         11         12
     1  N    0.000000  -0.000003   0.000000   0.000000   0.000000   0.000000
     2  C    0.000014   0.001265  -0.000003   0.000000   0.000000   0.000000
     3  C   -0.028603   0.443134  -0.035315   0.000911   0.000034   0.001131
     4  C   -0.012585  -0.028547   0.001230  -0.000014   0.000002   0.000062
     5  C   -0.030180  -0.011425  -0.000010   0.000000  -0.000010   0.000849
     6  C    0.486908  -0.035572   0.001000   0.000059   0.000881  -0.031802
     7  C    4.812558   0.455900  -0.038453  -0.009948  -0.030360   0.458012
     8  C    0.455900   4.826720   0.487425  -0.030318  -0.011470  -0.028424
     9  C   -0.038453   0.487425   4.829591   0.503777  -0.029269  -0.011497
    10  C   -0.009948  -0.030318   0.503777   4.845379   0.498011  -0.031411
    11  C   -0.030360  -0.011470  -0.029269   0.498011   4.820637   0.505630
    12  C    0.458012  -0.028424  -0.011497  -0.031411   0.505630   4.788430
    13  N   -0.000210  -0.000002   0.000000  -0.000001  -0.000120  -0.011538
    14  C   -0.028778   0.000945   0.000005   0.001061  -0.034605   0.426747
    15  H    0.001562   0.000081   0.000002   0.000000   0.000000  -0.000018
    16  H   -0.025754   0.001400  -0.000027   0.000000   0.000017  -0.003712
    17  H    0.001616  -0.024160   0.387309  -0.027115   0.001466   0.000040
    18  H    0.000018   0.001440  -0.025824   0.391242  -0.026863   0.001485
    19  H    0.001356   0.000042   0.001452  -0.025955   0.388746  -0.025177
              13         14         15         16         17         18
     1  N    0.000000   0.000000   0.000061   0.000000   0.000000   0.000000
     2  C    0.000000   0.000000  -0.003059  -0.000022  -0.000002   0.000000
     3  C    0.000000  -0.000016   0.001504   0.000089  -0.001681  -0.000022
     4  C    0.000000  -0.000001  -0.024956   0.001546   0.000019   0.000000
     5  C    0.000000   0.000019   0.383182  -0.026844   0.000000   0.000000
     6  C   -0.000094  -0.003794  -0.027225   0.390391  -0.000019   0.000001
     7  C   -0.000210  -0.028778   0.001562  -0.025754   0.001616   0.000018
     8  C   -0.000002   0.000945   0.000081   0.001400  -0.024160   0.001440
     9  C    0.000000   0.000005   0.000002  -0.000027   0.387309  -0.025824
    10  C   -0.000001   0.001061   0.000000   0.000000  -0.027115   0.391242
    11  C   -0.000120  -0.034605   0.000000   0.000017   0.001466  -0.026863
    12  C   -0.011538   0.426747  -0.000018  -0.003712   0.000040   0.001485
    13  N    6.584616   0.686387   0.000000  -0.000070   0.000000   0.000000
    14  C    0.686387   4.898806  -0.000001   0.000672   0.000001  -0.000023
    15  H    0.000000  -0.000001   0.624357  -0.004115   0.000000   0.000000
    16  H   -0.000070   0.000672  -0.004115   0.616593   0.000001   0.000000
    17  H    0.000000   0.000001   0.000000   0.000001   0.598006  -0.003830
    18  H    0.000000  -0.000023   0.000000   0.000000  -0.003830   0.615925
    19  H    0.000048  -0.003793   0.000000  -0.000001  -0.000038  -0.003874
              19
     1  N    0.000000
     2  C    0.000000
     3  C    0.000001
     4  C    0.000000
     5  C    0.000000
     6  C   -0.000020
     7  C    0.001356
     8  C    0.000042
     9  C    0.001452
    10  C   -0.025955
    11  C    0.388746
    12  C   -0.025177
    13  N    0.000048
    14  C   -0.003793
    15  H    0.000000
    16  H   -0.000001
    17  H   -0.000038
    18  H   -0.003874
    19  H    0.606389
 Mulliken charges:
               1
     1  N   -0.287509
     2  C    0.055126
     3  C   -0.172879
     4  C   -0.089489
     5  C   -0.091865
     6  C   -0.118619
     7  C   -0.013073
     8  C   -0.048432
     9  C   -0.071393
    10  C   -0.115677
    11  C   -0.082728
    12  C   -0.038808
    13  N   -0.259017
    14  C    0.056365
    15  H    0.048625
    16  H    0.049836
    17  H    0.068387
    18  H    0.050326
    19  H    0.060823
 Sum of Mulliken charges =  -1.00000
 Mulliken charges with hydrogens summed into heavy atoms:
               1
     1  N   -0.287509
     2  C    0.055126
     3  C   -0.172879
     4  C   -0.089489
     5  C   -0.043240
     6  C   -0.068783
     7  C   -0.013073
     8  C   -0.048432
     9  C   -0.003006
    10  C   -0.065350
    11  C   -0.021906
    12  C   -0.038808
    13  N   -0.259017
    14  C    0.056365
 Electronic spatial extent (au):  <R**2>=           2749.6243
 Charge=             -1.0000 electrons
 Dipole moment (field-independent basis, Debye):
    X=              5.1550    Y=              1.1629    Z=              1.3945  Tot=              5.4655
 Quadrupole moment (field-independent basis, Debye-Ang):
   XX=           -121.7913   YY=            -87.6515   ZZ=            -75.4292
   XY=             12.1058   XZ=             -2.9862   YZ=             -3.1074
 Traceless Quadrupole moment (field-independent basis, Debye-Ang):
   XX=            -26.8340   YY=              7.3058   ZZ=             19.5282
   XY=             12.1058   XZ=             -2.9862   YZ=             -3.1074
 Octapole moment (field-independent basis, Debye-Ang**2):
  XXX=            152.6450  YYY=             22.6651  ZZZ=             -2.6805  XYY=            -28.2626
  XXY=             28.2862  XXZ=             32.1591  XZZ=              0.1784  YZZ=             -1.0146
  YYZ=              8.5051  XYZ=             -8.3797
 Hexadecapole moment (field-independent basis, Debye-Ang**3):
 XXXX=          -3391.1373 YYYY=          -1014.5430 ZZZZ=           -132.3353 XXXY=             68.4406
 XXXZ=           -119.8037 YYYX=            108.5285 YYYZ=            -26.6550 ZZZX=              2.1168
 ZZZY=              2.2214 XXYY=           -668.2083 XXZZ=           -453.4252 YYZZ=           -185.2272
 XXYZ=            -32.9597 YYXZ=             24.4142 ZZXY=             -1.9325
 N-N= 7.090053999999D+02 E-N=-2.740621676668D+03  KE= 5.554412104085D+02
 Calling FoFJK, ICntrl=      2127 FMM=F ISym2X=0 I1Cent= 0 IOpClX= 0 NMat=1 NMatS=1 NMatT=0.
 ***** Axes restored to original set *****
 -------------------------------------------------------------------
 Center     Atomic                   Forces (Hartrees/Bohr)
 Number     Number              X              Y              Z
 -------------------------------------------------------------------
      1        7          -0.060676578    0.036442269   -0.076385135
      2        6           0.042968713   -0.025262114    0.051536699
      3        6          -0.065698511    0.033371739   -0.000241491
      4        6           0.006294019    0.021256309    0.037822790
      5        6           0.025819444   -0.032803079   -0.013998521
      6        6           0.005591716   -0.011542081   -0.030702530
      7        6           0.020859503   -0.024288478   -0.001671208
      8        6          -0.022667962    0.006012666   -0.017822825
      9        6           0.009568717    0.001837481    0.033342468
     10        6          -0.017838457    0.007561708    0.002932764
     11        6           0.009541562   -0.005054010    0.000821484
     12        6           0.021409096    0.002569391    0.024406276
     13        7           0.097909582   -0.017155009   -0.052296230
     14        6          -0.080351275    0.007269749    0.041706214
     15        1          -0.006050095   -0.012865820   -0.004547154
     16        1           0.013894592    0.002487356   -0.004075139
     17        1          -0.006763466    0.006531574   -0.002456985
     18        1           0.000583179    0.004168861    0.009992298
     19        1           0.005606221   -0.000538513    0.001636226
 -------------------------------------------------------------------
 Cartesian Forces:  Max     0.097909582 RMS     0.030376538

 GradGradGradGradGradGradGradGradGradGradGradGradGradGradGradGradGradGrad
 Berny optimization.
 FormGI is forming the generalized inverse of G from B-inverse, IUseBI=4.
 Internal  Forces:  Max     0.112243265 RMS     0.021776226
 Search for a local minimum.
 Step number   1 out of a maximum of  102
 All quantities printed in internal units (Hartrees-Bohrs-Radians)
 Mixed Optimization -- RFO/linear search
 Second derivative matrix not updated -- first step.
 ITU=  0
     Eigenvalues ---    0.01712   0.01712   0.01971   0.02013   0.02063
     Eigenvalues ---    0.02083   0.02100   0.02120   0.02129   0.02144
     Eigenvalues ---    0.02150   0.02160   0.02204   0.02244   0.02250
     Eigenvalues ---    0.02361   0.04887   0.04887   0.15920   0.15981
     Eigenvalues ---    0.15995   0.15997   0.16000   0.21926   0.22119
     Eigenvalues ---    0.23263   0.24135   0.24416   0.24694   0.24789
     Eigenvalues ---    0.24999   0.34636   0.34753   0.34835   0.35091
     Eigenvalues ---    0.35538   0.39263   0.40294   0.40543   0.41151
     Eigenvalues ---    0.41213   0.42894   0.44013   0.44851   0.45001
     Eigenvalues ---    0.45717   0.46081   0.46568   0.47419   1.27633
     Eigenvalues ---    1.28834
 RFO step:  Lambda=-6.70191977D-02 EMin= 1.71239810D-02
 Linear search not attempted -- first point.
 Maximum step size (   0.300) exceeded in Quadratic search.
    -- Step size scaled by   0.877
 Iteration  1 RMS(Cart)=  0.08295557 RMS(Int)=  0.00192020
 Iteration  2 RMS(Cart)=  0.00288468 RMS(Int)=  0.00027234
 Iteration  3 RMS(Cart)=  0.00000658 RMS(Int)=  0.00027232
 Iteration  4 RMS(Cart)=  0.00000000 RMS(Int)=  0.00027232
 Variable       Old X    -DE/DX   Delta X   Delta X   Delta X     New X
                                 (Linear)    (Quad)   (Total)
    R1        2.19255   0.10409   0.00000   0.06793   0.06793   2.26047
    R2        2.69938   0.03240   0.00000   0.05928   0.05928   2.75866
    R3        2.65589   0.01569   0.00000   0.02468   0.02504   2.68093
    R4        2.67500   0.03997   0.00000   0.07097   0.07112   2.74612
    R5        2.62695   0.06240   0.00000   0.09916   0.09936   2.72632
    R6        2.61929   0.00850   0.00000   0.01321   0.01305   2.63234
    R7        2.06077   0.00872   0.00000   0.01843   0.01843   2.07920
    R8        2.64902   0.03018   0.00000   0.05213   0.05177   2.70078
    R9        2.05528   0.00700   0.00000   0.01468   0.01468   2.06996
   R10        2.64212   0.06373   0.00000   0.11269   0.11260   2.75473
   R11        2.67688   0.04065   0.00000   0.07397   0.07398   2.75086
   R12        2.64119   0.03477   0.00000   0.05939   0.05949   2.70068
   R13        2.65220   0.00586   0.00000   0.00767   0.00766   2.65987
   R14        2.05943   0.00750   0.00000   0.01582   0.01582   2.07526
   R15        2.63410   0.02685   0.00000   0.04043   0.04032   2.67442
   R16        2.04810   0.01080   0.00000   0.02242   0.02242   2.07052
   R17        2.64713   0.01355   0.00000   0.02113   0.02103   2.66816
   R18        2.06270   0.00557   0.00000   0.01182   0.01182   2.07451
   R19        2.71156   0.02191   0.00000   0.04086   0.04086   2.75243
   R20        2.18909   0.11224   0.00000   0.07259   0.07259   2.26169
    A1        2.08905  -0.03372   0.00000  -0.09069  -0.09022   1.99884
    A2        2.10334  -0.01048   0.00000  -0.02773  -0.02802   2.07532
    A3        2.09010  -0.01093   0.00000  -0.02894  -0.02922   2.06088
    A4        2.08970   0.02144   0.00000   0.05698   0.05696   2.14666
    A5        2.08409   0.00468   0.00000   0.01393   0.01354   2.09764
    A6        2.11566  -0.00113   0.00000  -0.00253  -0.00235   2.11331
    A7        2.08243  -0.00349   0.00000  -0.01108  -0.01091   2.07151
    A8        2.09436  -0.00726   0.00000  -0.01651  -0.01761   2.07674
    A9        2.08475   0.00651   0.00000   0.01937   0.01982   2.10457
   A10        2.10390   0.00078   0.00000  -0.00248  -0.00203   2.10187
   A11        2.06866  -0.00387   0.00000  -0.00748  -0.00827   2.06040
   A12        2.14398   0.00549   0.00000   0.00492   0.00529   2.14927
   A13        2.06899  -0.00163   0.00000   0.00271   0.00311   2.07210
   A14        2.06797   0.02044   0.00000   0.06107   0.06080   2.12877
   A15        2.12603  -0.00652   0.00000  -0.02788  -0.02771   2.09832
   A16        2.08715  -0.01397   0.00000  -0.03320  -0.03308   2.05407
   A17        2.09679   0.00763   0.00000   0.02403   0.02396   2.12075
   A18        2.11386  -0.00840   0.00000  -0.02975  -0.02977   2.08409
   A19        2.07252   0.00076   0.00000   0.00562   0.00559   2.07811
   A20        2.08742   0.00532   0.00000   0.00755   0.00732   2.09474
   A21        2.09624  -0.00192   0.00000  -0.00027  -0.00016   2.09607
   A22        2.09510  -0.00330   0.00000  -0.00615  -0.00609   2.08901
   A23        2.09230   0.00699   0.00000   0.01355   0.01328   2.10558
   A24        2.08939  -0.00159   0.00000   0.00063   0.00077   2.09016
   A25        2.10117  -0.00540   0.00000  -0.01425  -0.01412   2.08705
   A26        2.09010  -0.00370   0.00000  -0.00570  -0.00608   2.08402
   A27        2.10986   0.00116   0.00000   0.00320   0.00304   2.11289
   A28        2.06547   0.00329   0.00000   0.00954   0.00936   2.07483
   A29        3.08645   0.00578   0.00000   0.06024   0.06024   3.14669
   A30        3.08206   0.00660   0.00000   0.04988   0.04988   3.13194
   A31        3.11827   0.00255   0.00000   0.02653   0.02653   3.14480
   A32        3.07466   0.00589   0.00000   0.04453   0.04453   3.11919
    D1       -2.94012  -0.00454   0.00000  -0.03308  -0.03352  -2.97363
    D2        0.19172   0.00020   0.00000   0.00431   0.00408   0.19579
    D3        0.02742   0.00065   0.00000   0.00397   0.00423   0.03164
    D4        3.10019  -0.00074   0.00000   0.00263   0.00317   3.10336
    D5        3.01970  -0.00154   0.00000  -0.01153  -0.01183   3.00787
    D6       -0.07333  -0.00280   0.00000  -0.01878  -0.01892  -0.09225
    D7       -0.11221  -0.00624   0.00000  -0.04864  -0.04913  -0.16134
    D8        3.07795  -0.00751   0.00000  -0.05589  -0.05623   3.02172
    D9       -0.18723   0.00542   0.00000   0.07195   0.07182  -0.11541
   D10        2.97444   0.00325   0.00000   0.05024   0.05026   3.02470
   D11        2.90673   0.00672   0.00000   0.07929   0.07896   2.98570
   D12       -0.21478   0.00455   0.00000   0.05757   0.05740  -0.15738
   D13        0.40687  -0.00971   0.00000  -0.07809  -0.07781   0.32906
   D14       -2.67413  -0.00949   0.00000  -0.08095  -0.08051  -2.75465
   D15       -2.75502  -0.00745   0.00000  -0.05588  -0.05603  -2.81106
   D16        0.44716  -0.00724   0.00000  -0.05874  -0.05873   0.38843
   D17       -0.32095   0.00232   0.00000   0.02831   0.02865  -0.29229
   D18        2.88789   0.00342   0.00000   0.02952   0.02959   2.91749
   D19        2.76270   0.00238   0.00000   0.03115   0.03133   2.79403
   D20       -0.31165   0.00347   0.00000   0.03236   0.03227  -0.27938
   D21       -2.95768  -0.00156   0.00000  -0.01575  -0.01621  -2.97389
   D22        0.38858  -0.00618   0.00000  -0.05695  -0.05710   0.33149
   D23        0.24452  -0.00127   0.00000  -0.01828  -0.01855   0.22596
   D24       -2.69241  -0.00589   0.00000  -0.05947  -0.05944  -2.75185
   D25       -2.92444  -0.00116   0.00000  -0.01590  -0.01632  -2.94075
   D26        0.21025  -0.00333   0.00000  -0.03282  -0.03283   0.17742
   D27        0.14760  -0.00124   0.00000  -0.01364  -0.01370   0.13390
   D28       -3.00090  -0.00341   0.00000  -0.03056  -0.03021  -3.03111
   D29        0.08875  -0.00222   0.00000  -0.01677  -0.01657   0.07218
   D30        3.12949  -0.00125   0.00000  -0.00426  -0.00399   3.12549
   D31       -3.04609  -0.00006   0.00000  -0.00012   0.00002  -3.04607
   D32       -0.00536   0.00091   0.00000   0.01240   0.01260   0.00724
   D33       -0.15579   0.00137   0.00000   0.02381   0.02417  -0.13162
   D34        2.95851   0.00135   0.00000   0.02091   0.02105   2.97956
   D35        3.08660   0.00032   0.00000   0.01095   0.01129   3.09789
   D36       -0.08229   0.00030   0.00000   0.00806   0.00818  -0.07411
   D37       -0.01119  -0.00136   0.00000  -0.00845  -0.00843  -0.01962
   D38        2.93090   0.00292   0.00000   0.03102   0.03087   2.96178
   D39       -3.12530  -0.00140   0.00000  -0.00578  -0.00556  -3.13085
   D40       -0.18321   0.00288   0.00000   0.03369   0.03375  -0.14946
         Item               Value     Threshold  Converged?
 Maximum Force            0.112243     0.000450     NO 
 RMS     Force            0.021776     0.000300     NO 
 Maximum Displacement     0.330178     0.001800     NO 
 RMS     Displacement     0.083313     0.001200     NO 
 Predicted change in Energy=-3.803963D-02
 GradGradGradGradGradGradGradGradGradGradGradGradGradGradGradGradGradGrad

                          Input orientation:                          
 ---------------------------------------------------------------------
 Center     Atomic      Atomic             Coordinates (Angstroms)
 Number     Number       Type             X           Y           Z
 ---------------------------------------------------------------------
      1          7           0        3.883937    1.316587   -1.975148
      2          6           0        4.626134    0.920505   -1.124775
      3          6           0        5.366593    0.927592    1.241161
      4          6           0        5.526225    0.439066   -0.081159
      5          6           0        6.520416   -0.542344   -0.441455
      6          6           0        7.501763   -0.914115    0.474581
      7          6           0        7.594216   -0.209706    1.714684
      8          6           0        6.437546    0.561793    2.152753
      9          6           0        6.423591    1.028770    3.503374
     10          6           0        7.548720    0.897396    4.338835
     11          6           0        8.756872    0.371856    3.822028
     12          6           0        8.806529   -0.170990    2.519569
     13          7           0       11.167406   -0.733476    1.447547
     14          6           0       10.103764   -0.491883    1.940203
     15          1           0        6.545174   -0.982186   -1.449676
     16          1           0        8.191840   -1.734552    0.249809
     17          1           0        5.523289    1.521261    3.894405
     18          1           0        7.517628    1.277248    5.366086
     19          1           0        9.671577    0.411749    4.427716
 ---------------------------------------------------------------------
                    Distance matrix (angstroms):
                    1          2          3          4          5
     1  N    0.000000
     2  C    1.196190   0.000000
     3  C    3.562896   2.479110   0.000000
     4  C    2.656002   1.459822   1.418686   0.000000
     5  C    3.571954   2.489007   2.514601   1.442704   0.000000
     6  C    4.905697   3.767361   2.922068   2.458190   1.392975
     7  C    5.450743   4.260213   2.545580   2.814701   2.431590
     8  C    4.912249   3.761924   1.453185   2.415767   2.820620
     9  C    6.045402   4.966119   2.499017   3.741910   4.247287
    10  C    7.312505   6.196215   3.789218   4.882305   5.097199
    11  C    7.631858   6.467988   4.296942   5.067195   4.900488
    12  C    6.829881   5.652283   3.830714   4.230408   3.759239
    13  N    8.304608   7.220854   6.037480   5.961100   5.019897
    14  C    7.568803   6.433767   4.994433   5.089836   4.302932
    15  H    3.555651   2.721857   3.503842   2.220597   1.100265
    16  H    5.728691   4.653285   4.006471   3.455381   2.166301
    17  H    6.097624   5.134001   2.723362   4.120227   4.904326
    18  H    8.191396   7.114723   4.665213   5.860095   6.167080
    19  H    8.678258   7.519673   5.380809   6.124919   5.877834
                    6          7          8          9         10
     6  C    0.000000
     7  C    1.429193   0.000000
     8  C    2.475302   1.457738   0.000000
     9  C    3.756440   2.470546   1.429140   0.000000
    10  C    4.268048   2.848493   2.475135   1.407541   0.000000
    11  C    3.799266   2.476062   2.863884   2.444847   1.415243
    12  C    2.537050   1.455693   2.506712   2.843535   2.456269
    13  N    3.796870   3.621240   4.954454   5.462208   4.910619
    14  C    3.016079   2.535412   3.820546   4.277799   3.769852
    15  H    2.149991   3.422044   3.920835   5.347095   6.168208
    16  H    1.095375   2.197309   3.460049   4.620426   4.905190
    17  H    4.641186   3.469319   2.188561   1.098179   2.165432
    18  H    5.359957   3.943302   3.464674   2.174478   1.095673
    19  H    4.700348   3.473064   3.956883   3.432861   2.179512
                   11         12         13         14         15
    11  C    0.000000
    12  C    1.411930   0.000000
    13  N    3.559578   2.653179   0.000000
    14  C    2.470107   1.456522   1.196833   0.000000
    15  H    5.875024   4.639684   5.460841   4.939154   0.000000
    16  H    4.185327   2.823894   3.360167   2.838505   2.483105
    17  H    3.432555   3.941263   6.551871   5.371444   5.989215
    18  H    2.177056   3.444026   5.720038   4.642693   7.246055
    19  H    1.097786   2.174607   3.525684   2.681614   6.801557
                   16         17         18         19
    16  H    0.000000
    17  H    5.568174   0.000000
    18  H    5.975097   2.490537   0.000000
    19  H    4.924544   4.327093   2.503822   0.000000
 Stoichiometry    C12H5N2(1-)
 Framework group  C1[X(C12H5N2)]
 Deg. of freedom    51
 Full point group                 C1      NOp   1
 Largest Abelian subgroup         C1      NOp   1
 Largest concise Abelian subgroup C1      NOp   1
                         Standard orientation:                         
 ---------------------------------------------------------------------
 Center     Atomic      Atomic             Coordinates (Angstroms)
 Number     Number       Type             X           Y           Z
 ---------------------------------------------------------------------
      1          7           0       -4.817048   -0.233616   -0.588303
      2          6           0       -3.658098   -0.180275   -0.296995
      3          6           0       -1.584535    1.147022   -0.006128
      4          6           0       -2.244551   -0.107031    0.060220
      5          6           0       -1.591283   -1.316451    0.498328
      6          6           0       -0.212653   -1.335373    0.696821
      7          6           0        0.556450   -0.189576    0.325034
      8          6           0       -0.141766    1.078518    0.153475
      9          6           0        0.649462    2.265010    0.060552
     10          6           0        2.053007    2.208127   -0.028869
     11          6           0        2.706742    0.955974   -0.116371
     12          6           0        1.983537   -0.246093    0.043489
     13          7           0        3.158883   -2.546684   -0.560835
     14          6           0        2.637140   -1.508013   -0.275605
     15          1           0       -2.158822   -2.247607    0.644714
     16          1           0        0.275684   -2.213800    1.132410
     17          1           0        0.152546    3.244032    0.036295
     18          1           0        2.635991    3.131880   -0.114365
     19          1           0        3.781033    0.916563   -0.338809
 ---------------------------------------------------------------------
 Rotational constants (GHZ):      1.3364110      0.4701045      0.3594579
 Standard basis: STO-3G (5D, 7F)
 There are    75 symmetry adapted cartesian basis functions of A   symmetry.
 There are    75 symmetry adapted basis functions of A   symmetry.
    75 basis functions,   225 primitive gaussians,    75 cartesian basis functions
    46 alpha electrons       46 beta electrons
       nuclear repulsion energy       694.5284953145 Hartrees.
 NAtoms=   19 NActive=   19 NUniq=   19 SFac= 1.00D+00 NAtFMM=   60 NAOKFM=F Big=F
 Integral buffers will be    131072 words long.
 Raffenetti 2 integral format.
 Two-electron integral symmetry is turned on.
 One-electron integrals computed using PRISM.
 NBasis=    75 RedAO= T EigKep=  1.74D-01  NBF=    75
 NBsUse=    75 1.00D-06 EigRej= -1.00D+00 NBFU=    75
 Initial guess from the checkpoint file:  "/tmp/bnp.472633.sequoia/Gau-13591.chk"
 B after Tr=     0.000000    0.000000    0.000000
         Rot=    0.999872   -0.005435    0.001098   -0.015012 Ang=  -1.83 deg.
 ExpMin= 1.69D-01 ExpMax= 9.91D+01 ExpMxC= 9.91D+01 IAcc=1 IRadAn=         1 AccDes= 0.00D+00
 Harris functional with IExCor=  402 and IRadAn=       1 diagonalized for initial guess.
 HarFok:  IExCor=  402 AccDes= 0.00D+00 IRadAn=         1 IDoV= 1 UseB2=F ITyADJ=14
 ICtDFT=  3500011 ScaDFX=  1.000000  1.000000  1.000000  1.000000
 FoFCou: FMM=F IPFlag=           0 FMFlag=      100000 FMFlg1=           0
         NFxFlg=           0 DoJE=T BraDBF=F KetDBF=T FulRan=T
         wScrn=  0.000000 ICntrl=     500 IOpCl=  0 I1Cent=   200000004 NGrid=           0
         NMat0=    1 NMatS0=      1 NMatT0=    0 NMatD0=    1 NMtDS0=    0 NMtDT0=    0
 Petite list used in FoFCou.
 Keep R1 ints in memory in canonical form, NReq=4993994.
 Requested convergence on RMS density matrix=1.00D-08 within 128 cycles.
 Requested convergence on MAX density matrix=1.00D-06.
 Requested convergence on             energy=1.00D-06.
 No special actions if energy rises.
 Integral accuracy reduced to 1.0D-05 until final iterations.
 Initial convergence to 1.0D-05 achieved.  Increase integral accuracy.
 SCF Done:  E(RB3LYP) =  -562.508699253     A.U. after   18 cycles
            NFock= 18  Conv=0.94D-08     -V/T= 2.0139
 Calling FoFJK, ICntrl=      2127 FMM=F ISym2X=0 I1Cent= 0 IOpClX= 0 NMat=1 NMatS=1 NMatT=0.
 ***** Axes restored to original set *****
 -------------------------------------------------------------------
 Center     Atomic                   Forces (Hartrees/Bohr)
 Number     Number              X              Y              Z
 -------------------------------------------------------------------
      1        7          -0.005564015    0.003009295   -0.006317880
      2        6           0.000987594   -0.001408574    0.000029583
      3        6          -0.027534430    0.013596745    0.001883478
      4        6           0.014971210   -0.002319091    0.011213965
      5        6           0.004634289   -0.004575137   -0.002121548
      6        6          -0.002351605    0.003743259   -0.009991041
      7        6           0.005781827   -0.003478196    0.006551722
      8        6           0.003977361   -0.005358897   -0.009780292
      9        6           0.010128536   -0.003800904    0.009372261
     10        6          -0.007300446    0.002416483   -0.002778803
     11        6           0.001194621   -0.002163876   -0.002301911
     12        6          -0.001966257    0.004402459    0.007435247
     13        7           0.008459026   -0.002285584   -0.003279536
     14        6          -0.007342269   -0.004463796    0.003012776
     15        1          -0.005695882   -0.005817580    0.001181309
     16        1           0.007205834    0.005581587   -0.002754827
     17        1          -0.001458122    0.002602941   -0.002705211
     18        1           0.000898745    0.000489930    0.001210558
     19        1           0.000973983   -0.000171065    0.000140148
 -------------------------------------------------------------------
 Cartesian Forces:  Max     0.027534430 RMS     0.006609183

 GradGradGradGradGradGradGradGradGradGradGradGradGradGradGradGradGradGrad
 Berny optimization.
 Using GEDIIS/GDIIS optimizer.
 FormGI is forming the generalized inverse of G from B-inverse, IUseBI=4.
 Internal  Forces:  Max     0.017088592 RMS     0.004240032
 Search for a local minimum.
 Step number   2 out of a maximum of  102
 All quantities printed in internal units (Hartrees-Bohrs-Radians)
 Mixed Optimization -- RFO/linear search
 Update second derivatives using D2CorX and points    1    2
 DE= -3.52D-02 DEPred=-3.80D-02 R= 9.26D-01
 TightC=F SS=  1.41D+00  RLast= 3.88D-01 DXNew= 5.0454D-01 1.1633D+00
 Trust test= 9.26D-01 RLast= 3.88D-01 DXMaxT set to 5.05D-01
 ITU=  1  0
 Use linear search instead of GDIIS.
     Eigenvalues ---    0.01712   0.01729   0.01965   0.02003   0.02061
     Eigenvalues ---    0.02082   0.02087   0.02117   0.02119   0.02137
     Eigenvalues ---    0.02149   0.02158   0.02180   0.02239   0.02276
     Eigenvalues ---    0.02305   0.04887   0.04943   0.15919   0.15948
     Eigenvalues ---    0.15993   0.15999   0.16008   0.21957   0.22236
     Eigenvalues ---    0.22635   0.23650   0.24313   0.24578   0.24817
     Eigenvalues ---    0.25003   0.34640   0.34769   0.34841   0.35101
     Eigenvalues ---    0.35567   0.39168   0.40269   0.40598   0.41055
     Eigenvalues ---    0.41392   0.42963   0.44185   0.44806   0.45008
     Eigenvalues ---    0.45854   0.46070   0.47398   0.51704   1.28099
     Eigenvalues ---    1.32975
 RFO step:  Lambda=-1.50754181D-02 EMin= 1.71239572D-02
 Quartic linear search produced a step of  0.34281.
 Iteration  1 RMS(Cart)=  0.15032736 RMS(Int)=  0.00667558
 Iteration  2 RMS(Cart)=  0.01313864 RMS(Int)=  0.00110418
 Iteration  3 RMS(Cart)=  0.00005873 RMS(Int)=  0.00110369
 Iteration  4 RMS(Cart)=  0.00000002 RMS(Int)=  0.00110369
 Variable       Old X    -DE/DX   Delta X   Delta X   Delta X     New X
                                 (Linear)    (Quad)   (Total)
    R1        2.26047   0.00894   0.02329  -0.01428   0.00900   2.26948
    R2        2.75866   0.00784   0.02032   0.00326   0.02358   2.78224
    R3        2.68093   0.00477   0.00858   0.00264   0.01251   2.69344
    R4        2.74612   0.01330   0.02438   0.01501   0.04002   2.78615
    R5        2.72632   0.00624   0.03406  -0.02031   0.01444   2.74075
    R6        2.63234  -0.00324   0.00447  -0.01378  -0.01001   2.62233
    R7        2.07920   0.00111   0.00632  -0.00243   0.00389   2.08308
    R8        2.70078   0.00391   0.01775  -0.00556   0.01081   2.71159
    R9        2.06996   0.00092   0.00503  -0.00183   0.00320   2.07316
   R10        2.75473   0.00637   0.03860  -0.01624   0.02128   2.77601
   R11        2.75086   0.00222   0.02536  -0.01795   0.00723   2.75809
   R12        2.70068   0.00489   0.02039  -0.00605   0.01404   2.71472
   R13        2.65987  -0.00479   0.00263  -0.01726  -0.01444   2.64543
   R14        2.07526   0.00140   0.00542  -0.00051   0.00491   2.08017
   R15        2.67442   0.00206   0.01382  -0.01082   0.00353   2.67795
   R16        2.07052   0.00128   0.00768  -0.00332   0.00436   2.07488
   R17        2.66816  -0.00241   0.00721  -0.01524  -0.00769   2.66047
   R18        2.07451   0.00088   0.00405  -0.00095   0.00310   2.07762
   R19        2.75243   0.00259   0.01401  -0.00615   0.00785   2.76028
   R20        2.26169   0.00933   0.02489  -0.01557   0.00931   2.27100
    A1        1.99884  -0.01709  -0.03093  -0.04413  -0.07536   1.92348
    A2        2.07532  -0.00392  -0.00961  -0.00957  -0.01934   2.05598
    A3        2.06088  -0.00688  -0.01002  -0.02367  -0.03386   2.02702
    A4        2.14666   0.01075   0.01953   0.03246   0.05132   2.19798
    A5        2.09764   0.00045   0.00464  -0.00015   0.00153   2.09917
    A6        2.11331  -0.00143  -0.00080  -0.01014  -0.00984   2.10347
    A7        2.07151   0.00103  -0.00374   0.01167   0.00904   2.08055
    A8        2.07674  -0.00070  -0.00604   0.01259   0.00147   2.07821
    A9        2.10457   0.00191   0.00679   0.00129   0.01021   2.11478
   A10        2.10187  -0.00121  -0.00070  -0.01392  -0.01254   2.08933
   A11        2.06040  -0.00200  -0.00283   0.00161  -0.00513   2.05526
   A12        2.14927   0.00079   0.00181  -0.01028  -0.00533   2.14394
   A13        2.07210   0.00122   0.00107   0.00984   0.01142   2.08353
   A14        2.12877   0.00991   0.02084   0.03601   0.05559   2.18436
   A15        2.09832  -0.00405  -0.00950  -0.02267  -0.03001   2.06831
   A16        2.05407  -0.00585  -0.01134  -0.01245  -0.02476   2.02932
   A17        2.12075   0.00439   0.00821   0.02101   0.02797   2.14872
   A18        2.08409  -0.00503  -0.01020  -0.02537  -0.03507   2.04902
   A19        2.07811   0.00063   0.00192   0.00398   0.00636   2.08447
   A20        2.09474   0.00016   0.00251  -0.00318  -0.00120   2.09354
   A21        2.09607   0.00092  -0.00006   0.00918   0.00900   2.10508
   A22        2.08901  -0.00099  -0.00209  -0.00310  -0.00535   2.08366
   A23        2.10558  -0.00028   0.00455  -0.00837  -0.00390   2.10168
   A24        2.09016   0.00067   0.00026   0.00554   0.00584   2.09600
   A25        2.08705  -0.00038  -0.00484   0.00297  -0.00184   2.08521
   A26        2.08402   0.00106  -0.00208   0.01680   0.01187   2.09589
   A27        2.11289  -0.00144   0.00104  -0.00579  -0.00642   2.10647
   A28        2.07483   0.00084   0.00321   0.00354   0.00506   2.07989
   A29        3.14669   0.00014   0.02065  -0.02030   0.00035   3.14704
   A30        3.13194   0.00112   0.01710   0.00348   0.02058   3.15252
   A31        3.14480  -0.00003   0.00910  -0.01247  -0.00338   3.14143
   A32        3.11919   0.00108   0.01527   0.00474   0.02001   3.13919
    D1       -2.97363  -0.00305  -0.01149  -0.07464  -0.08587  -3.05951
    D2        0.19579  -0.00108   0.00140  -0.04074  -0.03946   0.15633
    D3        0.03164   0.00106   0.00145   0.01725   0.01817   0.04982
    D4        3.10336   0.00095   0.00109   0.03208   0.03342   3.13678
    D5        3.00787  -0.00038  -0.00406  -0.00111  -0.00527   3.00260
    D6       -0.09225  -0.00182  -0.00649  -0.04055  -0.04668  -0.13893
    D7       -0.16134  -0.00229  -0.01684  -0.03454  -0.05081  -0.21215
    D8        3.02172  -0.00373  -0.01927  -0.07398  -0.09222   2.92950
    D9       -0.11541   0.00372   0.02462   0.13023   0.15585   0.04044
   D10        3.02470   0.00260   0.01723   0.09490   0.11258   3.13728
   D11        2.98570   0.00508   0.02707   0.16823   0.19627  -3.10122
   D12       -0.15738   0.00396   0.01968   0.13289   0.15300  -0.00438
   D13        0.32906  -0.00604  -0.02668  -0.15780  -0.18382   0.14524
   D14       -2.75465  -0.00633  -0.02760  -0.18207  -0.20910  -2.96374
   D15       -2.81106  -0.00492  -0.01921  -0.12253  -0.14121  -2.95227
   D16        0.38843  -0.00521  -0.02013  -0.14681  -0.16649   0.22194
   D17       -0.29229   0.00276   0.00982   0.08264   0.09266  -0.19964
   D18        2.91749   0.00282   0.01015   0.06863   0.07801   2.99549
   D19        2.79403   0.00303   0.01074   0.10515   0.11649   2.91051
   D20       -0.27938   0.00309   0.01106   0.09114   0.10184  -0.17754
   D21       -2.97389  -0.00156  -0.00556  -0.04549  -0.05188  -3.02577
   D22        0.33149  -0.00495  -0.01957  -0.14917  -0.16877   0.16272
   D23        0.22596  -0.00175  -0.00636  -0.06966  -0.07702   0.14894
   D24       -2.75185  -0.00514  -0.02038  -0.17334  -0.19391  -2.94576
   D25       -2.94075  -0.00181  -0.00559  -0.05409  -0.06011  -3.00086
   D26        0.17742  -0.00255  -0.01125  -0.07352  -0.08450   0.09293
   D27        0.13390  -0.00130  -0.00470  -0.03795  -0.04297   0.09093
   D28       -3.03111  -0.00204  -0.01036  -0.05737  -0.06736  -3.09847
   D29        0.07218  -0.00134  -0.00568  -0.03527  -0.04066   0.03152
   D30        3.12549  -0.00016  -0.00137   0.00250   0.00158   3.12707
   D31       -3.04607  -0.00052   0.00001  -0.01552  -0.01527  -3.06134
   D32        0.00724   0.00065   0.00432   0.02225   0.02697   0.03421
   D33       -0.13162   0.00171   0.00829   0.05549   0.06421  -0.06741
   D34        2.97956   0.00187   0.00722   0.06119   0.06842   3.04799
   D35        3.09789   0.00045   0.00387   0.01725   0.02176   3.11965
   D36       -0.07411   0.00061   0.00280   0.02295   0.02597  -0.04814
   D37       -0.01962  -0.00013  -0.00289  -0.00087  -0.00410  -0.02371
   D38        2.96178   0.00297   0.01058   0.09962   0.10992   3.07169
   D39       -3.13085  -0.00030  -0.00190  -0.00660  -0.00842  -3.13927
   D40       -0.14946   0.00279   0.01157   0.09389   0.10559  -0.04386
         Item               Value     Threshold  Converged?
 Maximum Force            0.017089     0.000450     NO 
 RMS     Force            0.004240     0.000300     NO 
 Maximum Displacement     0.610259     0.001800     NO 
 RMS     Displacement     0.149911     0.001200     NO 
 Predicted change in Energy=-9.950168D-03
 GradGradGradGradGradGradGradGradGradGradGradGradGradGradGradGradGradGrad

                          Input orientation:                          
 ---------------------------------------------------------------------
 Center     Atomic      Atomic             Coordinates (Angstroms)
 Number     Number       Type             X           Y           Z
 ---------------------------------------------------------------------
      1          7           0        3.690600    1.093462   -1.922861
      2          6           0        4.504948    0.804011   -1.088987
      3          6           0        5.310747    0.975365    1.251493
      4          6           0        5.499935    0.454406   -0.061637
      5          6           0        6.542890   -0.467159   -0.469633
      6          6           0        7.614936   -0.727530    0.372130
      7          6           0        7.649571   -0.112011    1.667859
      8          6           0        6.453903    0.617345    2.111009
      9          6           0        6.449477    1.060498    3.477508
     10          6           0        7.550289    0.919481    4.330767
     11          6           0        8.753674    0.350236    3.844936
     12          6           0        8.825967   -0.149929    2.530906
     13          7           0       11.160188   -1.056411    1.626436
     14          6           0       10.103202   -0.650073    2.028803
     15          1           0        6.494636   -0.968724   -1.450050
     16          1           0        8.409823   -1.424961    0.080069
     17          1           0        5.545337    1.572376    3.841133
     18          1           0        7.506538    1.285501    5.365019
     19          1           0        9.646560    0.318687    4.485640
 ---------------------------------------------------------------------
                    Distance matrix (angstroms):
                    1          2          3          4          5
     1  N    0.000000
     2  C    1.200955   0.000000
     3  C    3.565859   2.481233   0.000000
     4  C    2.673245   1.472300   1.425307   0.000000
     5  C    3.561315   2.480459   2.561508   1.450344   0.000000
     6  C    4.897286   3.761981   2.997068   2.461373   1.387675
     7  C    5.479042   4.281116   2.612632   2.816545   2.433053
     8  C    4.912702   3.751432   1.474365   2.378444   2.800675
     9  C    6.064361   4.969895   2.501819   3.714098   4.233484
    10  C    7.350873   6.217810   3.807965   4.869647   5.097202
    11  C    7.710681   6.526958   4.355511   5.085173   4.916423
    12  C    6.910431   5.717064   3.906399   4.260163   3.783690
    13  N    8.544836   7.424750   6.203600   6.096772   5.104916
    14  C    7.731561   6.570801   5.119950   5.174929   4.353328
    15  H    3.512660   2.689203   3.532620   2.223155   1.102321
    16  H    5.711852   4.645757   4.091219   3.466923   2.169101
    17  H    6.073964   5.096948   2.667900   4.059992   4.872116
    18  H    8.228698   7.134113   4.673198   5.845150   6.167950
    19  H    8.783088   7.599222   5.448872   6.155538   5.899581
                    6          7          8          9         10
     6  C    0.000000
     7  C    1.434914   0.000000
     8  C    2.486038   1.469001   0.000000
     9  C    3.768118   2.467759   1.436567   0.000000
    10  C    4.288081   2.857431   2.494128   1.399902   0.000000
    11  C    3.810340   2.484427   2.892541   2.439016   1.417112
    12  C    2.541758   1.459518   2.528183   2.829999   2.451630
    13  N    3.774951   3.635662   5.018504   5.486217   4.924320
    14  C    2.990324   2.537734   3.863999   4.286550   3.778877
    15  H    2.152576   3.433539   3.898514   5.329222   6.172322
    16  H    1.097067   2.196110   3.481573   4.643604   4.929872
    17  H    4.648310   3.462381   2.175064   1.100777   2.164681
    18  H    5.384514   3.955059   3.484689   2.175018   1.097981
    19  H    4.705638   3.480424   3.990129   3.433359   2.186159
                   11         12         13         14         15
    11  C    0.000000
    12  C    1.407859   0.000000
    13  N    3.562543   2.662399   0.000000
    14  C    2.473901   1.460679   1.201760   0.000000
    15  H    5.905911   4.685460   5.589260   5.022520   0.000000
    16  H    4.176576   2.793830   3.176726   2.695468   2.493463
    17  H    3.433229   3.930084   6.583461   5.384975   5.946004
    18  H    2.177319   3.439992   5.728064   4.649672   7.249182
    19  H    1.099428   2.171165   3.515254   2.680124   6.842840
                   16         17         18         19
    16  H    0.000000
    17  H    5.597759   0.000000
    18  H    6.007764   2.500167   0.000000
    19  H    4.896823   4.336722   2.507535   0.000000
 Stoichiometry    C12H5N2(1-)
 Framework group  C1[X(C12H5N2)]
 Deg. of freedom    51
 Full point group                 C1      NOp   1
 Largest Abelian subgroup         C1      NOp   1
 Largest concise Abelian subgroup C1      NOp   1
                         Standard orientation:                         
 ---------------------------------------------------------------------
 Center     Atomic      Atomic             Coordinates (Angstroms)
 Number     Number       Type             X           Y           Z
 ---------------------------------------------------------------------
      1          7           0       -4.896348   -0.271249   -0.359361
      2          6           0       -3.709462   -0.207850   -0.187384
      3          6           0       -1.651907    1.168634   -0.019229
      4          6           0       -2.254552   -0.122361    0.021413
      5          6           0       -1.580067   -1.367000    0.336757
      6          6           0       -0.194282   -1.418259    0.387868
      7          6           0        0.556342   -0.214126    0.174315
      8          6           0       -0.186829    1.050624    0.096413
      9          6           0        0.601931    2.250978    0.069342
     10          6           0        2.000425    2.245849    0.006807
     11          6           0        2.700625    1.016304   -0.071596
     12          6           0        2.004709   -0.205746   -0.005559
     13          7           0        3.359119   -2.475823   -0.322878
     14          6           0        2.741892   -1.454987   -0.177439
     15          1           0       -2.159992   -2.282491    0.538437
     16          1           0        0.330894   -2.350819    0.628863
     17          1           0        0.063286    3.210828    0.053205
     18          1           0        2.562113    3.188726   -0.025602
     19          1           0        3.791358    1.010912   -0.209489
 ---------------------------------------------------------------------
 Rotational constants (GHZ):      1.3861317      0.4593636      0.3490971
 Standard basis: STO-3G (5D, 7F)
 There are    75 symmetry adapted cartesian basis functions of A   symmetry.
 There are    75 symmetry adapted basis functions of A   symmetry.
    75 basis functions,   225 primitive gaussians,    75 cartesian basis functions
    46 alpha electrons       46 beta electrons
       nuclear repulsion energy       691.9355126850 Hartrees.
 NAtoms=   19 NActive=   19 NUniq=   19 SFac= 1.00D+00 NAtFMM=   60 NAOKFM=F Big=F
 Integral buffers will be    131072 words long.
 Raffenetti 2 integral format.
 Two-electron integral symmetry is turned on.
 One-electron integrals computed using PRISM.
 NBasis=    75 RedAO= T EigKep=  1.76D-01  NBF=    75
 NBsUse=    75 1.00D-06 EigRej= -1.00D+00 NBFU=    75
 Initial guess from the checkpoint file:  "/tmp/bnp.472633.sequoia/Gau-13591.chk"
 B after Tr=     0.000000    0.000000    0.000000
         Rot=    0.999944   -0.003952    0.000598   -0.009826 Ang=  -1.22 deg.
 ExpMin= 1.69D-01 ExpMax= 9.91D+01 ExpMxC= 9.91D+01 IAcc=1 IRadAn=         1 AccDes= 0.00D+00
 Harris functional with IExCor=  402 and IRadAn=       1 diagonalized for initial guess.
 HarFok:  IExCor=  402 AccDes= 0.00D+00 IRadAn=         1 IDoV= 1 UseB2=F ITyADJ=14
 ICtDFT=  3500011 ScaDFX=  1.000000  1.000000  1.000000  1.000000
 FoFCou: FMM=F IPFlag=           0 FMFlag=      100000 FMFlg1=           0
         NFxFlg=           0 DoJE=T BraDBF=F KetDBF=T FulRan=T
         wScrn=  0.000000 ICntrl=     500 IOpCl=  0 I1Cent=   200000004 NGrid=           0
         NMat0=    1 NMatS0=      1 NMatT0=    0 NMatD0=    1 NMtDS0=    0 NMtDT0=    0
 Petite list used in FoFCou.
 Keep R1 ints in memory in canonical form, NReq=4993994.
 Requested convergence on RMS density matrix=1.00D-08 within 128 cycles.
 Requested convergence on MAX density matrix=1.00D-06.
 Requested convergence on             energy=1.00D-06.
 No special actions if energy rises.
 Integral accuracy reduced to 1.0D-05 until final iterations.
 Initial convergence to 1.0D-05 achieved.  Increase integral accuracy.
 SCF Done:  E(RB3LYP) =  -562.519377238     A.U. after   20 cycles
            NFock= 20  Conv=0.21D-08     -V/T= 2.0140
 Calling FoFJK, ICntrl=      2127 FMM=F ISym2X=0 I1Cent= 0 IOpClX= 0 NMat=1 NMatS=1 NMatT=0.
 ***** Axes restored to original set *****
 -------------------------------------------------------------------
 Center     Atomic                   Forces (Hartrees/Bohr)
 Number     Number              X              Y              Z
 -------------------------------------------------------------------
      1        7           0.001743357   -0.000426403    0.001816508
      2        6          -0.002941515    0.000111696   -0.003923478
      3        6          -0.007194188    0.005232163    0.002047701
      4        6           0.003344602   -0.006735876   -0.000312923
      5        6          -0.000889813    0.002151571   -0.001019768
      6        6          -0.000796139   -0.001473141    0.000633479
      7        6           0.001193439    0.003639465    0.000683917
      8        6           0.008273057   -0.004060389   -0.000237055
      9        6           0.001180719    0.000853302    0.001431788
     10        6          -0.002072183    0.000592466    0.000383498
     11        6           0.002474365   -0.000486738   -0.000743679
     12        6          -0.004640789    0.000070882    0.000445687
     13        7          -0.002689900    0.000941299    0.000772869
     14        6           0.002286921   -0.003370897   -0.000048101
     15        1          -0.000430301    0.000623094    0.000432721
     16        1           0.001578355    0.002601327   -0.000945660
     17        1          -0.000074084   -0.000083683   -0.000540883
     18        1           0.000242889    0.000116187   -0.000651874
     19        1          -0.000588793   -0.000296326   -0.000224748
 -------------------------------------------------------------------
 Cartesian Forces:  Max     0.008273057 RMS     0.002497308

 GradGradGradGradGradGradGradGradGradGradGradGradGradGradGradGradGradGrad
 Berny optimization.
 Using GEDIIS/GDIIS optimizer.
 FormGI is forming the generalized inverse of G from B-inverse, IUseBI=4.
 Internal  Forces:  Max     0.005632984 RMS     0.001430046
 Search for a local minimum.
 Step number   3 out of a maximum of  102
 All quantities printed in internal units (Hartrees-Bohrs-Radians)
 Mixed Optimization -- RFO/linear search
 Update second derivatives using D2CorX and points    2    3
 DE= -1.07D-02 DEPred=-9.95D-03 R= 1.07D+00
 TightC=F SS=  1.41D+00  RLast= 6.61D-01 DXNew= 8.4853D-01 1.9819D+00
 Trust test= 1.07D+00 RLast= 6.61D-01 DXMaxT set to 8.49D-01
 ITU=  1  1  0
 Use linear search instead of GDIIS.
     Eigenvalues ---    0.01619   0.01714   0.01778   0.01973   0.02018
     Eigenvalues ---    0.02041   0.02078   0.02090   0.02094   0.02109
     Eigenvalues ---    0.02123   0.02134   0.02163   0.02187   0.02242
     Eigenvalues ---    0.02791   0.04888   0.04937   0.15771   0.15981
     Eigenvalues ---    0.15986   0.15996   0.16017   0.20789   0.22145
     Eigenvalues ---    0.22477   0.23576   0.24511   0.24853   0.24978
     Eigenvalues ---    0.24998   0.34645   0.34774   0.34841   0.35102
     Eigenvalues ---    0.35571   0.38601   0.40105   0.40520   0.41039
     Eigenvalues ---    0.41499   0.43048   0.44206   0.44733   0.45134
     Eigenvalues ---    0.45901   0.46065   0.47553   0.51871   1.28108
     Eigenvalues ---    1.33751
 RFO step:  Lambda=-2.30670165D-03 EMin= 1.61949333D-02
 Quartic linear search produced a step of  0.35614.
 Iteration  1 RMS(Cart)=  0.11234705 RMS(Int)=  0.00348611
 Iteration  2 RMS(Cart)=  0.00695778 RMS(Int)=  0.00077899
 Iteration  3 RMS(Cart)=  0.00001650 RMS(Int)=  0.00077896
 Iteration  4 RMS(Cart)=  0.00000000 RMS(Int)=  0.00077896
 Variable       Old X    -DE/DX   Delta X   Delta X   Delta X     New X
                                 (Linear)    (Quad)   (Total)
    R1        2.26948  -0.00255   0.00321  -0.00250   0.00070   2.27018
    R2        2.78224   0.00221   0.00840   0.00391   0.01231   2.79455
    R3        2.69344   0.00442   0.00446   0.01154   0.01656   2.71000
    R4        2.78615   0.00563   0.01425   0.01133   0.02576   2.81191
    R5        2.74075  -0.00249   0.00514  -0.00682  -0.00131   2.73945
    R6        2.62233   0.00010  -0.00357   0.00261  -0.00119   2.62113
    R7        2.08308  -0.00065   0.00138  -0.00266  -0.00127   2.08181
    R8        2.71159  -0.00018   0.00385  -0.00146   0.00180   2.71339
    R9        2.07316  -0.00026   0.00114  -0.00114   0.00000   2.07316
   R10        2.77601  -0.00285   0.00758  -0.00833  -0.00162   2.77439
   R11        2.75809  -0.00278   0.00257  -0.00737  -0.00504   2.75305
   R12        2.71472   0.00072   0.00500   0.00132   0.00604   2.72076
   R13        2.64543  -0.00122  -0.00514  -0.00001  -0.00490   2.64053
   R14        2.08017  -0.00016   0.00175  -0.00112   0.00063   2.08080
   R15        2.67795   0.00082   0.00126   0.00275   0.00457   2.68252
   R16        2.07488  -0.00059   0.00155  -0.00231  -0.00076   2.07412
   R17        2.66047  -0.00090  -0.00274  -0.00027  -0.00270   2.65777
   R18        2.07762  -0.00060   0.00111  -0.00257  -0.00146   2.07616
   R19        2.76028   0.00023   0.00280   0.00053   0.00333   2.76361
   R20        2.27100  -0.00294   0.00332  -0.00281   0.00051   2.27151
    A1        1.92348  -0.00382  -0.02684   0.00095  -0.02719   1.89629
    A2        2.05598   0.00039  -0.00689   0.00526  -0.00203   2.05395
    A3        2.02702  -0.00208  -0.01206  -0.00441  -0.01687   2.01015
    A4        2.19798   0.00178   0.01828   0.00434   0.02110   2.21908
    A5        2.09917   0.00042   0.00055   0.00547   0.00413   2.10330
    A6        2.10347  -0.00081  -0.00350  -0.00515  -0.00794   2.09553
    A7        2.08055   0.00039   0.00322  -0.00032   0.00357   2.08412
    A8        2.07821   0.00007   0.00052   0.00247   0.00007   2.07828
    A9        2.11478   0.00021   0.00364  -0.00073   0.00405   2.11883
   A10        2.08933  -0.00026  -0.00447  -0.00003  -0.00337   2.08596
   A11        2.05526   0.00052  -0.00183   0.00563   0.00152   2.05678
   A12        2.14394  -0.00056  -0.00190  -0.00454  -0.00439   2.13955
   A13        2.08353   0.00007   0.00407   0.00006   0.00318   2.08671
   A14        2.18436   0.00151   0.01980   0.00062   0.01948   2.20384
   A15        2.06831  -0.00164  -0.01069  -0.00685  -0.01569   2.05262
   A16        2.02932   0.00015  -0.00882   0.00721  -0.00286   2.02646
   A17        2.14872   0.00018   0.00996  -0.00107   0.00765   2.15637
   A18        2.04902  -0.00066  -0.01249   0.00058  -0.01140   2.03761
   A19        2.08447   0.00049   0.00226   0.00160   0.00437   2.08883
   A20        2.09354  -0.00068  -0.00043  -0.00140  -0.00239   2.09115
   A21        2.10508   0.00046   0.00321   0.00042   0.00348   2.10855
   A22        2.08366   0.00024  -0.00190   0.00184  -0.00022   2.08345
   A23        2.10168  -0.00080  -0.00139  -0.00180  -0.00344   2.09824
   A24        2.09600   0.00041   0.00208   0.00060   0.00275   2.09875
   A25        2.08521   0.00039  -0.00066   0.00155   0.00095   2.08616
   A26        2.09589   0.00136   0.00423   0.00718   0.00913   2.10502
   A27        2.10647  -0.00091  -0.00229  -0.00331  -0.00632   2.10015
   A28        2.07989  -0.00041   0.00180  -0.00305  -0.00196   2.07792
   A29        3.14704   0.00032   0.00013   0.03662   0.03675   3.18379
   A30        3.15252  -0.00055   0.00733  -0.01530  -0.00798   3.14454
   A31        3.14143  -0.00024  -0.00120  -0.00905  -0.01025   3.13118
   A32        3.13919   0.00000   0.00713  -0.00118   0.00594   3.14514
    D1       -3.05951  -0.00029  -0.03058   0.01614  -0.01361  -3.07312
    D2        0.15633  -0.00158  -0.01405  -0.07120  -0.08531   0.07102
    D3        0.04982   0.00007   0.00647  -0.00485   0.00097   0.05079
    D4        3.13678   0.00060   0.01190   0.01784   0.02949  -3.11691
    D5        3.00260   0.00034  -0.00188   0.02080   0.01920   3.02180
    D6       -0.13893  -0.00009  -0.01662   0.01181  -0.00425  -0.14318
    D7       -0.21215   0.00171  -0.01810   0.10722   0.08988  -0.12227
    D8        2.92950   0.00127  -0.03284   0.09823   0.06642   2.99593
    D9        0.04044  -0.00019   0.05550  -0.05556   0.00094   0.04138
   D10        3.13728   0.00039   0.04009  -0.01126   0.02940  -3.11651
   D11       -3.10122   0.00024   0.06990  -0.04669   0.02424  -3.07698
   D12       -0.00438   0.00082   0.05449  -0.00239   0.05270   0.04832
   D13        0.14524  -0.00125  -0.06546  -0.01285  -0.07794   0.06730
   D14       -2.96374  -0.00206  -0.07447  -0.05458  -0.12890  -3.09264
   D15       -2.95227  -0.00183  -0.05029  -0.05647  -0.10604  -3.05831
   D16        0.22194  -0.00264  -0.05929  -0.09820  -0.15700   0.06494
   D17       -0.19964   0.00145   0.03300   0.04608   0.07895  -0.12068
   D18        2.99549   0.00098   0.02778   0.02424   0.05119   3.04668
[...]
 ! D13   D(5,6,7,8)             -0.0002         -DE/DX =    0.0                 !
 ! D14   D(5,6,7,12)          -179.9932         -DE/DX =    0.0                 !
 ! D15   D(16,6,7,8)          -179.997          -DE/DX =    0.0                 !
 ! D16   D(16,6,7,12)            0.01           -DE/DX =    0.0                 !
 ! D17   D(6,7,8,3)              0.0066         -DE/DX =    0.0                 !
 ! D18   D(6,7,8,9)           -179.9937         -DE/DX =    0.0                 !
 ! D19   D(12,7,8,3)           179.9997         -DE/DX =    0.0                 !
 ! D20   D(12,7,8,9)            -0.0005         -DE/DX =    0.0                 !
 ! D21   D(6,7,12,11)          179.9913         -DE/DX =    0.0                 !
 ! D22   D(6,7,12,14)           -0.0035         -DE/DX =    0.0                 !
 ! D23   D(8,7,12,11)           -0.0016         -DE/DX =    0.0                 !
 ! D24   D(8,7,12,14)          180.0036         -DE/DX =    0.0                 !
 ! D25   D(3,8,9,10)          -179.9977         -DE/DX =    0.0                 !
 ! D26   D(3,8,9,17)            -0.0013         -DE/DX =    0.0                 !
 ! D27   D(7,8,9,10)             0.0025         -DE/DX =    0.0                 !
 ! D28   D(7,8,9,17)           179.9989         -DE/DX =    0.0                 !
 ! D29   D(8,9,10,11)           -0.0023         -DE/DX =    0.0                 !
 ! D30   D(8,9,10,18)          179.9989         -DE/DX =    0.0                 !
 ! D31   D(17,9,10,11)        -179.9987         -DE/DX =    0.0                 !
 ! D32   D(17,9,10,18)           0.0025         -DE/DX =    0.0                 !
 ! D33   D(9,10,11,12)           0.0001         -DE/DX =    0.0                 !
 ! D34   D(9,10,11,19)        -180.0037         -DE/DX =    0.0                 !
 ! D35   D(18,10,11,12)       -180.0011         -DE/DX =    0.0                 !
 ! D36   D(18,10,11,19)         -0.0049         -DE/DX =    0.0                 !
 ! D37   D(10,11,12,7)           0.0019         -DE/DX =    0.0                 !
 ! D38   D(10,11,12,14)       -180.0033         -DE/DX =    0.0                 !
 ! D39   D(19,11,12,7)         180.0056         -DE/DX =    0.0                 !
 ! D40   D(19,11,12,14)          0.0004         -DE/DX =    0.0                 !
 --------------------------------------------------------------------------------
 GradGradGradGradGradGradGradGradGradGradGradGradGradGradGradGradGradGrad

                          Input orientation:                          
 ---------------------------------------------------------------------
 Center     Atomic      Atomic             Coordinates (Angstroms)
 Number     Number       Type             X           Y           Z
 ---------------------------------------------------------------------
      1          7           0        3.461510    0.686209   -1.794242
      2          6           0        4.360234    0.557175   -1.009978
      3          6           0        5.263750    0.955386    1.276904
      4          6           0        5.460810    0.403916   -0.036586
      5          6           0        6.623744   -0.294657   -0.531113
      6          6           0        7.726170   -0.504257    0.284630
      7          6           0        7.692526   -0.014174    1.632499
      8          6           0        6.490400    0.686677    2.083403
      9          6           0        6.498919    1.161499    3.441446
     10          6           0        7.575957    0.983504    4.313813
     11          6           0        8.737650    0.302683    3.868007
     12          6           0        8.805911   -0.191482    2.553435
     13          7           0       11.017182   -1.459715    1.783053
     14          6           0       10.018209   -0.888938    2.124912
     15          1           0        6.642391   -0.668100   -1.567295
     16          1           0        8.614879   -1.033265   -0.079438
     17          1           0        5.598079    1.689932    3.788459
     18          1           0        7.535568    1.364179    5.342138
     19          1           0        9.589333    0.158000    4.546493
 ---------------------------------------------------------------------
                    Distance matrix (angstroms):
                    1          2          3          4          5
     1  N    0.000000
     2  C    1.199760   0.000000
     3  C    3.571059   2.490932   0.000000
     4  C    2.676984   1.477244   1.438126   0.000000
     5  C    3.543630   2.465443   2.584785   1.443944   0.000000
     6  C    4.891446   3.759278   3.029633   2.461669   1.387340
     7  C    5.489498   4.291072   2.639214   2.818014   2.429441
     8  C    4.920397   3.758109   1.492419   2.373681   2.795798
     9  C    6.071588   4.975376   2.500674   3.707872   4.232871
    10  C    7.370576   6.234211   3.817055   4.871934   5.100363
    11  C    7.748923   6.559061   4.382673   5.098409   4.917079
    12  C    6.945161   5.746516   3.935956   4.272284   3.779806
    13  N    8.630771   7.495587   6.260262   6.136569   5.100493
    14  C    7.799433   6.628081   5.169674   5.207055   4.350865
    15  H    3.464630   2.649555   3.553284   2.210978   1.101582
    16  H    5.696872   4.636529   4.126071   3.466334   2.171214
    17  H    6.061265   5.083345   2.638038   4.037778   4.863053
    18  H    8.245332   7.147264   4.674869   5.844433   6.170756
    19  H    8.833693   7.640497   5.480575   6.173312   5.897600
                    6          7          8          9         10
     6  C    0.000000
     7  C    1.434595   0.000000
     8  C    2.486169   1.462742   0.000000
     9  C    3.774437   2.465602   1.438683   0.000000
    10  C    4.297710   2.863284   2.498253   1.397396   0.000000
    11  C    3.809834   2.488007   2.895237   2.435454   1.418377
    12  C    2.532024   1.455743   2.520652   2.818037   2.447920
    13  N    3.740178   3.628442   5.018861   5.480486   4.920985
    14  C    2.964466   2.533078   3.863900   4.280532   3.776496
    15  H    2.151987   3.430610   3.896937   5.334370   6.179545
    16  H    1.096448   2.195452   3.485612   4.657349   4.944428
    17  H    4.649737   3.455264   2.170247   1.100533   2.164957
    18  H    5.394976   3.960545   3.488659   2.174476   1.097268
    19  H    4.698237   3.481218   3.993707   3.432025   2.188443
                   11         12         13         14         15
    11  C    0.000000
    12  C    1.406044   0.000000
    13  N    3.556592   2.663010   0.000000
    14  C    2.469448   1.462786   1.200251   0.000000
    15  H    5.905509   4.678504   5.566892   5.007725   0.000000
    16  H    4.169190   2.770759   3.069494   2.617121   2.497553
    17  H    3.433322   3.918570   6.580928   5.381032   5.944326
    18  H    2.178265   3.436673   5.723906   4.646567   7.257285
    19  H    1.098471   2.169831   3.506045   2.672839   6.837054
                   16         17         18         19
    16  H    0.000000
    17  H    5.610482   0.000000
    18  H    6.025457   2.504775   0.000000
    19  H    4.875234   4.341836   2.511150   0.000000
 Stoichiometry    C12H5N2(1-)
 Framework group  C1[X(C12H5N2)]
 Deg. of freedom    51
 Full point group                 C1      NOp   1
 Largest Abelian subgroup         C1      NOp   1
 Largest concise Abelian subgroup C1      NOp   1
                         Standard orientation:                         
 ---------------------------------------------------------------------
 Center     Atomic      Atomic             Coordinates (Angstroms)
 Number     Number       Type             X           Y           Z
 ---------------------------------------------------------------------
      1          7           0       -4.933930   -0.274354   -0.000242
      2          6           0       -3.735752   -0.212766   -0.000049
      3          6           0       -1.676066    1.188105    0.000219
      4          6           0       -2.261079   -0.125656    0.000031
      5          6           0       -1.572026   -1.394586    0.000057
      6          6           0       -0.185779   -1.449645    0.000098
      7          6           0        0.555312   -0.221293    0.000138
      8          6           0       -0.191365    1.036518    0.000129
      9          6           0        0.590724    2.244055    0.000027
     10          6           0        1.988053    2.257748   -0.000110
     11          6           0        2.703870    1.033249   -0.000105
     12          6           0        2.010719   -0.190067    0.000036
     13          7           0        3.417879   -2.450934   -0.000081
     14          6           0        2.778651   -1.435066   -0.000037
     15          1           0       -2.147779   -2.333729   -0.000023
     16          1           0        0.348699   -2.407001    0.000154
     17          1           0        0.036385    3.194782    0.000002
     18          1           0        2.541137    3.205427   -0.000203
     19          1           0        3.802341    1.033967   -0.000275
 ---------------------------------------------------------------------
 Rotational constants (GHZ):      1.4152830      0.4561958      0.3449925

 **********************************************************************

            Population analysis using the SCF density.

 **********************************************************************

 Orbital symmetries:
       Occupied  (A) (A) (A) (A) (A) (A) (A) (A) (A) (A) (A) (A)
                 (A) (A) (A) (A) (A) (A) (A) (A) (A) (A) (A) (A)
                 (A) (A) (A) (A) (A) (A) (A) (A) (A) (A) (A) (A)
                 (A) (A) (A) (A) (A) (A) (A) (A) (A) (A)
       Virtual   (A) (A) (A) (A) (A) (A) (A) (A) (A) (A) (A) (A)
                 (A) (A) (A) (A) (A) (A) (A) (A) (A) (A) (A) (A)
                 (A) (A) (A) (A) (A)
 The electronic state is 1-A.
 Alpha  occ. eigenvalues --  -13.99137 -13.93048  -9.90389  -9.89648  -9.88818
 Alpha  occ. eigenvalues --   -9.87071  -9.87008  -9.86715  -9.85019  -9.83963
 Alpha  occ. eigenvalues --   -9.83705  -9.83435  -9.82463  -9.68096  -0.72709
 Alpha  occ. eigenvalues --   -0.67733  -0.67112  -0.61658  -0.58187  -0.54423
 Alpha  occ. eigenvalues --   -0.51162  -0.44996  -0.42291  -0.39774  -0.34734
 Alpha  occ. eigenvalues --   -0.31946  -0.30492  -0.28120  -0.25449  -0.22336
 Alpha  occ. eigenvalues --   -0.20665  -0.20558  -0.20192  -0.16877  -0.15528
 Alpha  occ. eigenvalues --   -0.14861  -0.14302  -0.13694  -0.12673  -0.10318
 Alpha  occ. eigenvalues --   -0.10069  -0.07959  -0.06398  -0.03040   0.01930
 Alpha  occ. eigenvalues --    0.10240
 Alpha virt. eigenvalues --    0.17033   0.21316   0.25691   0.26568   0.29788
 Alpha virt. eigenvalues --    0.31198   0.32635   0.38977   0.43156   0.46030
 Alpha virt. eigenvalues --    0.48340   0.49641   0.52035   0.56521   0.57123
 Alpha virt. eigenvalues --    0.58452   0.59899   0.62290   0.67001   0.69010
 Alpha virt. eigenvalues --    0.69647   0.75609   0.77779   0.82323   0.84971
 Alpha virt. eigenvalues --    0.91627   0.92574   1.06494   1.10752
          Condensed to atoms (all electrons):
               1          2          3          4          5          6
     1  N    6.634275   0.659955  -0.000010  -0.011006  -0.000018  -0.000001
     2  C    0.659955   4.974232  -0.033238   0.403148  -0.038536   0.000920
     3  C   -0.000010  -0.033238   5.478955   0.435922  -0.018075  -0.005610
     4  C   -0.011006   0.403148   0.435922   4.893434   0.455278  -0.030075
     5  C   -0.000018  -0.038536  -0.018075   0.455278   4.847411   0.524795
     6  C   -0.000001   0.000920  -0.005610  -0.030075   0.524795   4.861834
     7  C    0.000000   0.000006  -0.017151  -0.012088  -0.028765   0.471581
     8  C   -0.000002   0.001435   0.386522  -0.028829  -0.012862  -0.029589
     9  C    0.000000  -0.000005  -0.034428   0.001367   0.000012   0.000875
    10  C    0.000000   0.000000   0.000757  -0.000015   0.000000   0.000036
    11  C    0.000000   0.000000   0.000013   0.000001  -0.000007   0.000688
    12  C    0.000000   0.000000   0.000550   0.000052   0.000804  -0.028918
    13  N    0.000000   0.000000   0.000000   0.000000   0.000000  -0.000119
    14  C    0.000000   0.000000  -0.000004   0.000000   0.000017  -0.004107
    15  H    0.000041  -0.003255   0.000955  -0.023029   0.381013  -0.027129
    16  H    0.000000  -0.000020  -0.000005   0.001257  -0.024953   0.387497
    17  H    0.000000  -0.000002  -0.001603   0.000031   0.000000  -0.000017
    18  H    0.000000   0.000000  -0.000017   0.000000   0.000000   0.000001
    19  H    0.000000   0.000000   0.000000   0.000000   0.000000  -0.000016
               7          8          9         10         11         12
     1  N    0.000000  -0.000002   0.000000   0.000000   0.000000   0.000000
     2  C    0.000006   0.001435  -0.000005   0.000000   0.000000   0.000000
     3  C   -0.017151   0.386522  -0.034428   0.000757   0.000013   0.000550
     4  C   -0.012088  -0.028829   0.001367  -0.000015   0.000001   0.000052
     5  C   -0.028765  -0.012862   0.000012   0.000000  -0.000007   0.000804
     6  C    0.471581  -0.029589   0.000875   0.000036   0.000688  -0.028918
     7  C    4.822221   0.441546  -0.033553  -0.008192  -0.027623   0.451584
     8  C    0.441546   4.898640   0.468214  -0.025437  -0.008319  -0.022697
     9  C   -0.033553   0.468214   4.836756   0.510618  -0.029041  -0.010181
    10  C   -0.008192  -0.025437   0.510618   4.839886   0.485544  -0.029452
    11  C   -0.027623  -0.008319  -0.029041   0.485544   4.824795   0.506041
    12  C    0.451584  -0.022697  -0.010181  -0.029452   0.506041   4.787355
    13  N   -0.000015  -0.000001   0.000000  -0.000001  -0.000129  -0.010743
    14  C   -0.026151   0.000677   0.000006   0.000917  -0.031409   0.417081
    15  H    0.001470   0.000092   0.000001   0.000000   0.000000  -0.000016
    16  H   -0.025211   0.001142  -0.000020  -0.000001   0.000016  -0.003537
    17  H    0.001440  -0.025854   0.383722  -0.026620   0.001443   0.000032
    18  H    0.000007   0.001252  -0.024917   0.387868  -0.026012   0.001333
    19  H    0.001218   0.000024   0.001358  -0.024464   0.386766  -0.025483
              13         14         15         16         17         18
     1  N    0.000000   0.000000   0.000041   0.000000   0.000000   0.000000
     2  C    0.000000   0.000000  -0.003255  -0.000020  -0.000002   0.000000
     3  C    0.000000  -0.000004   0.000955  -0.000005  -0.001603  -0.000017
     4  C    0.000000   0.000000  -0.023029   0.001257   0.000031   0.000000
     5  C    0.000000   0.000017   0.381013  -0.024953   0.000000   0.000000
     6  C   -0.000119  -0.004107  -0.027129   0.387497  -0.000017   0.000001
     7  C   -0.000015  -0.026151   0.001470  -0.025211   0.001440   0.000007
     8  C   -0.000001   0.000677   0.000092   0.001142  -0.025854   0.001252
     9  C    0.000000   0.000006   0.000001  -0.000020   0.383722  -0.024917
    10  C   -0.000001   0.000917   0.000000  -0.000001  -0.026620   0.387868
    11  C   -0.000129  -0.031409   0.000000   0.000016   0.001443  -0.026012
    12  C   -0.010743   0.417081  -0.000016  -0.003537   0.000032   0.001333
    13  N    6.592967   0.659429   0.000000  -0.000159   0.000000   0.000000
    14  C    0.659429   4.937603   0.000000   0.001487   0.000001  -0.000018
    15  H    0.000000   0.000000   0.623242  -0.003848   0.000000   0.000000
    16  H   -0.000159   0.001487  -0.003848   0.614614   0.000000   0.000000
    17  H    0.000000   0.000001   0.000000   0.000000   0.601188  -0.003693
    18  H    0.000000  -0.000018   0.000000   0.000000  -0.003693   0.615483
    19  H    0.000059  -0.003694   0.000000  -0.000001  -0.000034  -0.003408
              19
     1  N    0.000000
     2  C    0.000000
     3  C    0.000000
     4  C    0.000000
     5  C    0.000000
     6  C   -0.000016
     7  C    0.001218
     8  C    0.000024
     9  C    0.001358
    10  C   -0.024464
    11  C    0.386766
    12  C   -0.025483
    13  N    0.000059
    14  C   -0.003694
    15  H    0.000000
    16  H   -0.000001
    17  H   -0.000034
    18  H   -0.003408
    19  H    0.606159
 Mulliken charges:
               1
     1  N   -0.283234
     2  C    0.035358
     3  C   -0.193534
     4  C   -0.085447
     5  C   -0.086116
     6  C   -0.122645
     7  C   -0.012322
     8  C   -0.045954
     9  C   -0.070783
    10  C   -0.111443
    11  C   -0.082766
    12  C   -0.033804
    13  N   -0.241289
    14  C    0.048167
    15  H    0.050465
    16  H    0.051743
    17  H    0.069965
    18  H    0.052124
    19  H    0.061516
 Sum of Mulliken charges =  -1.00000
 Mulliken charges with hydrogens summed into heavy atoms:
               1
     1  N   -0.283234
     2  C    0.035358
     3  C   -0.193534
     4  C   -0.085447
     5  C   -0.035651
     6  C   -0.070902
     7  C   -0.012322
     8  C   -0.045954
     9  C   -0.000818
    10  C   -0.059319
    11  C   -0.021250
    12  C   -0.033804
    13  N   -0.241289
    14  C    0.048167
 Electronic spatial extent (au):  <R**2>=           2935.8454
 Charge=             -1.0000 electrons
 Dipole moment (field-independent basis, Debye):
    X=              5.8672    Y=              0.6334    Z=             -0.0001  Tot=              5.9013
 Quadrupole moment (field-independent basis, Debye-Ang):
   XX=           -130.8461   YY=            -86.3803   ZZ=            -74.1603
   XY=             13.8700   XZ=             -0.0010   YZ=             -0.0015
 Traceless Quadrupole moment (field-independent basis, Debye-Ang):
   XX=            -33.7172   YY=             10.7486   ZZ=             22.9686
   XY=             13.8700   XZ=             -0.0010   YZ=             -0.0015
 Octapole moment (field-independent basis, Debye-Ang**2):
  XXX=            165.9066  YYY=             13.3312  ZZZ=             -0.0008  XYY=            -25.4475
  XXY=             40.4206  XXZ=              0.0093  XZZ=             -1.7378  YZZ=             -2.6305
  YYZ=             -0.0015  XYZ=              0.0005
 Hexadecapole moment (field-independent basis, Debye-Ang**3):
 XXXX=          -3950.9090 YYYY=          -1030.3708 ZZZZ=            -58.3680 XXXY=            119.5690
 XXXZ=             -0.0559 YYYX=            110.0167 YYYZ=             -0.0075 ZZZX=              0.0024
 ZZZY=              0.0008 XXYY=           -748.6000 XXZZ=           -458.2955 YYZZ=           -177.3210
 XXYZ=             -0.0131 YYXZ=              0.0067 ZZXY=             -7.7517
 N-N= 6.916160420268D+02 E-N=-2.705708838686D+03  KE= 5.547799829680D+02
 1\1\GINC-N043\FOpt\RB3LYP\STO-3G\C12H5N2(1-)\R2532\15-Jun-2021\0\\#N B
 3LYP/STO-3G OPT\\2Naph\\-1,1\N,3.4615101366,0.6862087926,-1.7942419076
 \C,4.3602339769,0.5571748303,-1.0099784912\C,5.2637498383,0.9553862199
 ,1.276903593\C,5.4608100616,0.4039159186,-0.0365860823\C,6.6237438873,
 -0.2946570214,-0.531112555\C,7.7261698231,-0.5042570565,0.2846301181\C
 ,7.6925258529,-0.014174329,1.6324992123\C,6.4903996054,0.6866766342,2.
 083403105\C,6.4989194192,1.1614989656,3.4414462992\C,7.5759565408,0.98
 35038515,4.313812993\C,8.7376500721,0.3026825643,3.8680070871\C,8.8059
 111312,-0.1914824133,2.5534347249\N,11.0171821186,-1.4597151401,1.7830
 534849\C,10.0182087421,-0.8889378805,2.1249117425\H,6.6423908187,-0.66
 81001795,-1.567295211\H,8.614878567,-1.0332649132,-0.0794376199\H,5.59
 80787216,1.6899321813,3.788459007\H,7.5355676304,1.3641793364,5.342137
 9624\H,9.5893330563,0.1579996389,4.5464925376\\Version=ES64L-G09RevD.0
 1\State=1-A\HF=-562.5225072\RMSD=6.135e-09\RMSF=1.039e-05\Dipole=1.666
 9032,-0.1857322,1.6054261\Quadrupole=-18.427434,12.9541177,5.4733163,1
 0.9784334,-14.2681377,2.3451524\PG=C01 [X(C12H5N2)]\\@


 IT'S WHAT YOU LEARN AFTER YOU KNOW IT ALL
 THAT COUNTS.
 Job cpu time:       0 days  0 hours  5 minutes 58.0 seconds.
 File lengths (MBytes):  RWF=      5 Int=      0 D2E=      0 Chk=      2 Scr=      1
 Normal termination of Gaussian 09 at Tue Jun 15 11:14:54 2021.
