 Entering Gaussian System, Link 0=/usr/local/apps//g09/g09
 Input=13.com
 Output=13.out
 Initial command:
 /usr/local/apps//g09/l1.exe "/tmp/bnp.472684.sequoia/Gau-2451.inp" -scrdir="/tmp/bnp.472684.sequoia/"
 Entering Link 1 = /usr/local/apps//g09/l1.exe PID=      2452.
  
 Copyright (c) 1988,1990,1992,1993,1995,1998,2003,2009,2013,
            Gaussian, Inc.  All Rights Reserved.
  
 This is part of the Gaussian(R) 09 program.  It is based on
 the Gaussian(R) 03 system (copyright 2003, Gaussian, Inc.),
 the Gaussian(R) 98 system (copyright 1998, Gaussian, Inc.),
 the Gaussian(R) 94 system (copyright 1995, Gaussian, Inc.),
 the Gaussian 92(TM) system (copyright 1992, Gaussian, Inc.),
 the Gaussian 90(TM) system (copyright 1990, Gaussian, Inc.),
 the Gaussian 88(TM) system (copyright 1988, Gaussian, Inc.),
 the Gaussian 86(TM) system (copyright 1986, Carnegie Mellon
 University), and the Gaussian 82(TM) system (copyright 1983,
 Carnegie Mellon University). Gaussian is a federally registered
 trademark of Gaussian, Inc.
  
 This software contains proprietary and confidential information,
 including trade secrets, belonging to Gaussian, Inc.
  
 This software is provided under written license and may be
 used, copied, transmitted, or stored only in accord with that
 written license.
  
 The following legend is applicable only to US Government
 contracts under FAR:
  
                    RESTRICTED RIGHTS LEGEND
  
 Use, reproduction and disclosure by the US Government is
 subject to restrictions as set forth in subparagraphs (a)
 and (c) of the Commercial Computer Software - Restricted
 Rights clause in FAR 52.227-19.
  
 Gaussian, Inc.
 340 Quinnipiac St., Bldg. 40, Wallingford CT 06492
  
  
 ---------------------------------------------------------------
 Warning -- This program may not be used in any manner that
 competes with the business of Gaussian, Inc. or will provide
 assistance to any competitor of Gaussian, Inc.  The licensee
 of this program is prohibited from giving any competitor of
 Gaussian, Inc. access to this program.  By using this program,
 the user acknowledges that Gaussian, Inc. is engaged in the
 business of creating and licensing software in the field of
 computational chemistry and represents and warrants to the
 licensee that it is not a competitor of Gaussian, Inc. and that
 it will not use this program in any manner prohibited above.
 ---------------------------------------------------------------
  

 Cite this work as:
 Gaussian 09, Revision D.01,
 M. J. Frisch, G. W. Trucks, H. B. Schlegel, G. E. Scuseria, 
 M. A. Robb, J. R. Cheeseman, G. Scalmani, V. Barone, B. Mennucci, 
 G. A. Petersson, H. Nakatsuji, M. Caricato, X. Li, H. P. Hratchian, 
 A. F. Izmaylov, J. Bloino, G. Zheng, J. L. Sonnenberg, M. Hada, 
 M. Ehara, K. Toyota, R. Fukuda, J. Hasegawa, M. Ishida, T. Nakajima, 
 Y. Honda, O. Kitao, H. Nakai, T. Vreven, J. A. Montgomery, Jr., 
 J. E. Peralta, F. Ogliaro, M. Bearpark, J. J. Heyd, E. Brothers, 
 K. N. Kudin, V. N. Staroverov, T. Keith, R. Kobayashi, J. Normand, 
 K. Raghavachari, A. Rendell, J. C. Burant, S. S. Iyengar, J. Tomasi, 
 M. Cossi, N. Rega, J. M. Millam, M. Klene, J. E. Knox, J. B. Cross, 
 V. Bakken, C. Adamo, J. Jaramillo, R. Gomperts, R. E. Stratmann, 
 O. Yazyev, A. J. Austin, R. Cammi, C. Pomelli, J. W. Ochterski, 
 R. L. Martin, K. Morokuma, V. G. Zakrzewski, G. A. Voth, 
 P. Salvador, J. J. Dannenberg, S. Dapprich, A. D. Daniels, 
 O. Farkas, J. B. Foresman, J. V. Ortiz, J. Cioslowski, 
 and D. J. Fox, Gaussian, Inc., Wallingford CT, 2013.
 
 ******************************************
 Gaussian 09:  ES64L-G09RevD.01 24-Apr-2013
                15-Jun-2021 
 ******************************************
 -------------------
 #N B3LYP/STO-3G OPT
 -------------------
 1/14=-1,18=20,19=15,26=3,38=1/1,3;
 2/9=110,12=2,17=6,18=5,40=1/2;
 3/6=3,11=2,16=1,25=1,30=1,71=1,74=-5/1,2,3;
 4//1;
 5/5=2,38=5/2;
 6/7=2,8=2,9=2,10=2,28=1/1;
 7//1,2,3,16;
 1/14=-1,18=20,19=15,26=3/3(2);
 2/9=110/2;
 99//99;
 2/9=110/2;
 3/6=3,11=2,16=1,25=1,30=1,71=1,74=-5/1,2,3;
 4/5=5,16=3,69=1/1;
 5/5=2,38=5/2;
 7//1,2,3,16;
 1/14=-1,18=20,19=15,26=3/3(-5);
 2/9=110/2;
 6/7=2,8=2,9=2,10=2,19=2,28=1/1;
 99/9=1/99;
 -----
 1Naph
 -----
 Symbolic Z-matrix:
 Charge = -1 Multiplicity = 1
 N                     2.62509   4.79807  -2.69111 
 C                     3.66862   4.38353  -2.39079 
 C                     4.97868   3.9423   -1.95428 
 C                     6.10375   4.53981  -2.55031 
 C                     7.37731   4.36101  -1.98598 
 C                     7.56384   3.51421  -0.89514 
 C                     6.48689   2.71111  -0.44728 
 C                     5.16445   2.97021  -0.94572 
 C                     4.10307   2.18183  -0.4526 
 C                     4.32906   1.08699   0.38602 
 C                     5.61554   0.79843   0.81233 
 C                     6.67558   1.63144   0.44653 
 N                     9.86805   3.57029   0.30495 
 C                     8.84115   3.53927  -0.24399 
 H                     6.01061   5.13969  -3.44899 
 H                     3.07542   2.36405  -0.76858 
 H                     3.50034   0.44238   0.6736 
 H                     5.8052   -0.08418   1.42071 
 H                     7.66776   1.37323   0.81081 
 

 GradGradGradGradGradGradGradGradGradGradGradGradGradGradGradGradGradGrad
 Berny optimization.
 Initialization pass.
                           ----------------------------
                           !    Initial Parameters    !
                           ! (Angstroms and Degrees)  !
 --------------------------                            --------------------------
 ! Name  Definition              Value          Derivative Info.                !
 --------------------------------------------------------------------------------
 ! R1    R(1,2)                  1.1623         estimate D2E/DX2                !
 ! R2    R(2,3)                  1.4496         estimate D2E/DX2                !
 ! R3    R(3,4)                  1.4064         estimate D2E/DX2                !
 ! R4    R(3,8)                  1.413          estimate D2E/DX2                !
 ! R5    R(4,5)                  1.4044         estimate D2E/DX2                !
 ! R6    R(4,15)                 1.0845         estimate D2E/DX2                !
 ! R7    R(5,6)                  1.3935         estimate D2E/DX2                !
 ! R8    R(6,7)                  1.4161         estimate D2E/DX2                !
 ! R9    R(6,14)                 1.4339         estimate D2E/DX2                !
 ! R10   R(7,8)                  1.4368         estimate D2E/DX2                !
 ! R11   R(7,12)                 1.4143         estimate D2E/DX2                !
 ! R12   R(8,9)                  1.4111         estimate D2E/DX2                !
 ! R13   R(9,10)                 1.3975         estimate D2E/DX2                !
 ! R14   R(9,16)                 1.0905         estimate D2E/DX2                !
 ! R15   R(10,11)                1.3857         estimate D2E/DX2                !
 ! R16   R(10,17)                1.0886         estimate D2E/DX2                !
 ! R17   R(11,12)                1.3969         estimate D2E/DX2                !
 ! R18   R(11,18)                1.0886         estimate D2E/DX2                !
 ! R19   R(12,19)                1.088          estimate D2E/DX2                !
 ! R20   R(13,14)                1.1648         estimate D2E/DX2                !
 ! A1    A(2,3,4)              117.775          estimate D2E/DX2                !
 ! A2    A(2,3,8)              122.8964         estimate D2E/DX2                !
 ! A3    A(4,3,8)              119.313          estimate D2E/DX2                !
 ! A4    A(3,4,5)              120.0684         estimate D2E/DX2                !
 ! A5    A(3,4,15)             121.1625         estimate D2E/DX2                !
 ! A6    A(5,4,15)             118.7686         estimate D2E/DX2                !
 ! A7    A(4,5,6)              120.8843         estimate D2E/DX2                !
 ! A8    A(5,6,7)              119.3671         estimate D2E/DX2                !
 ! A9    A(5,6,14)             117.6518         estimate D2E/DX2                !
 ! A10   A(7,6,14)             122.938          estimate D2E/DX2                !
 ! A11   A(6,7,8)              119.208          estimate D2E/DX2                !
 ! A12   A(6,7,12)             122.0967         estimate D2E/DX2                !
 ! A13   A(8,7,12)             118.6661         estimate D2E/DX2                !
 ! A14   A(3,8,7)              119.5161         estimate D2E/DX2                !
 ! A15   A(3,8,9)              122.3365         estimate D2E/DX2                !
 ! A16   A(7,8,9)              118.0544         estimate D2E/DX2                !
 ! A17   A(8,9,10)             121.7197         estimate D2E/DX2                !
 ! A18   A(8,9,16)             120.9448         estimate D2E/DX2                !
 ! A19   A(10,9,16)            117.206          estimate D2E/DX2                !
 ! A20   A(9,10,11)            119.8614         estimate D2E/DX2                !
 ! A21   A(9,10,17)            119.9559         estimate D2E/DX2                !
 ! A22   A(11,10,17)           120.1461         estimate D2E/DX2                !
 ! A23   A(10,11,12)           119.9855         estimate D2E/DX2                !
 ! A24   A(10,11,18)           120.1673         estimate D2E/DX2                !
 ! A25   A(12,11,18)           119.8417         estimate D2E/DX2                !
 ! A26   A(7,12,11)            121.2976         estimate D2E/DX2                !
 ! A27   A(7,12,19)            120.9596         estimate D2E/DX2                !
 ! A28   A(11,12,19)           117.568          estimate D2E/DX2                !
 ! A29   L(1,2,3,16,-1)        180.8789         estimate D2E/DX2                !
 ! A30   L(6,14,13,19,-1)      179.8014         estimate D2E/DX2                !
 ! A31   L(1,2,3,16,-2)        183.8794         estimate D2E/DX2                !
 ! A32   L(6,14,13,19,-2)      181.248          estimate D2E/DX2                !
 ! D1    D(2,3,4,5)            166.8925         estimate D2E/DX2                !
 ! D2    D(2,3,4,15)           -13.3581         estimate D2E/DX2                !
 ! D3    D(8,3,4,5)            -11.7127         estimate D2E/DX2                !
 ! D4    D(8,3,4,15)           168.0367         estimate D2E/DX2                !
 ! D5    D(2,3,8,7)           -171.9831         estimate D2E/DX2                !
 ! D6    D(2,3,8,9)             11.5936         estimate D2E/DX2                !
 ! D7    D(4,3,8,7)              6.5471         estimate D2E/DX2                !
 ! D8    D(4,3,8,9)           -169.8761         estimate D2E/DX2                !
 ! D9    D(3,4,5,6)              4.8805         estimate D2E/DX2                !
 ! D10   D(15,4,5,6)          -174.8749         estimate D2E/DX2                !
 ! D11   D(4,5,6,7)              7.1645         estimate D2E/DX2                !
 ! D12   D(4,5,6,14)          -170.518          estimate D2E/DX2                !
 ! D13   D(5,6,7,8)            -12.1462         estimate D2E/DX2                !
 ! D14   D(5,6,7,12)           165.8615         estimate D2E/DX2                !
 ! D15   D(14,6,7,8)           165.4078         estimate D2E/DX2                !
 ! D16   D(14,6,7,12)          -16.5845         estimate D2E/DX2                !
 ! D17   D(6,7,8,3)              5.3129         estimate D2E/DX2                !
 ! D18   D(6,7,8,9)           -178.1113         estimate D2E/DX2                !
 ! D19   D(12,7,8,3)          -172.7636         estimate D2E/DX2                !
 ! D20   D(12,7,8,9)             3.8122         estimate D2E/DX2                !
 ! D21   D(6,7,12,11)         -175.9473         estimate D2E/DX2                !
 ! D22   D(6,7,12,19)           -0.8704         estimate D2E/DX2                !
 ! D23   D(8,7,12,11)            2.0709         estimate D2E/DX2                !
 ! D24   D(8,7,12,19)          177.1477         estimate D2E/DX2                !
 ! D25   D(3,8,9,10)           169.7734         estimate D2E/DX2                !
 ! D26   D(3,8,9,16)            -5.9731         estimate D2E/DX2                !
 ! D27   D(7,8,9,10)            -6.6997         estimate D2E/DX2                !
 ! D28   D(7,8,9,16)           177.5538         estimate D2E/DX2                !
 ! D29   D(8,9,10,11)            3.5933         estimate D2E/DX2                !
 ! D30   D(8,9,10,17)         -174.2071         estimate D2E/DX2                !
 ! D31   D(16,9,10,11)         179.4917         estimate D2E/DX2                !
 ! D32   D(16,9,10,17)           1.6913         estimate D2E/DX2                !
 ! D33   D(9,10,11,12)           2.5059         estimate D2E/DX2                !
 ! D34   D(9,10,11,18)        -176.6417         estimate D2E/DX2                !
 ! D35   D(17,10,11,12)       -179.698          estimate D2E/DX2                !
 ! D36   D(17,10,11,18)          1.1544         estimate D2E/DX2                !
 ! D37   D(10,11,12,7)          -5.3289         estimate D2E/DX2                !
 ! D38   D(10,11,12,19)        179.4332         estimate D2E/DX2                !
 ! D39   D(18,11,12,7)         173.8215         estimate D2E/DX2                !
 ! D40   D(18,11,12,19)         -1.4164         estimate D2E/DX2                !
 --------------------------------------------------------------------------------
 Trust Radius=3.00D-01 FncErr=1.00D-07 GrdErr=1.00D-06
 Number of steps in this run=    102 maximum allowed number of steps=    114.
 GradGradGradGradGradGradGradGradGradGradGradGradGradGradGradGradGradGrad

                          Input orientation:                          
 ---------------------------------------------------------------------
 Center     Atomic      Atomic             Coordinates (Angstroms)
 Number     Number       Type             X           Y           Z
 ---------------------------------------------------------------------
      1          7           0        2.625090    4.798070   -2.691110
      2          6           0        3.668620    4.383530   -2.390790
      3          6           0        4.978680    3.942300   -1.954280
      4          6           0        6.103750    4.539810   -2.550310
      5          6           0        7.377310    4.361010   -1.985980
      6          6           0        7.563840    3.514210   -0.895140
      7          6           0        6.486890    2.711110   -0.447280
      8          6           0        5.164450    2.970210   -0.945720
      9          6           0        4.103070    2.181830   -0.452600
     10          6           0        4.329060    1.086990    0.386020
     11          6           0        5.615540    0.798430    0.812330
     12          6           0        6.675580    1.631440    0.446530
     13          7           0        9.868050    3.570290    0.304950
     14          6           0        8.841150    3.539270   -0.243990
     15          1           0        6.010610    5.139690   -3.448990
     16          1           0        3.075420    2.364050   -0.768580
     17          1           0        3.500340    0.442380    0.673600
     18          1           0        5.805200   -0.084180    1.420710
     19          1           0        7.667760    1.373230    0.810810
 ---------------------------------------------------------------------
                    Distance matrix (angstroms):
                    1          2          3          4          5
     1  N    0.000000
     2  C    1.162321   0.000000
     3  C    2.610488   1.449649   0.000000
     4  C    3.491074   2.445348   1.406433   0.000000
     5  C    4.824088   3.730785   2.435108   1.404419   0.000000
     6  C    5.409719   4.262092   2.826321   2.433784   1.393483
     7  C    4.929876   3.810100   2.462027   2.813126   2.425410
     8  C    3.582710   2.514599   1.413033   2.433236   2.813044
     9  C    3.747007   2.965267   2.474064   3.736734   4.221460
    10  C    5.113155   4.360508   3.748574   4.867599   5.063341
    11  C    6.100328   5.186850   4.235993   5.054070   4.860694
    12  C    6.023188   4.966507   3.739443   4.215051   3.722913
    13  N    7.933744   6.808914   5.398931   4.823114   3.475253
    14  C    6.797968   5.663620   4.243371   3.716659   2.419218
    15  H    3.486091   2.678896   2.175495   1.084508   2.148164
    16  H    3.134226   2.657396   2.742108   4.132708   4.896547
    17  H    5.573094   4.995144   4.619598   5.827544   6.120451
    18  H    7.131376   6.249235   5.318480   6.102411   5.816939
    19  H    7.030042   5.941824   4.634328   4.875498   4.102831
                    6          7          8          9         10
     6  C    0.000000
     7  C    1.416111   0.000000
     8  C    2.460806   1.436810   0.000000
     9  C    3.734703   2.441877   1.411112   0.000000
    10  C    4.242236   2.826373   2.453146   1.397508   0.000000
    11  C    3.753237   2.450350   2.830345   2.408611   1.385654
    12  C    2.476673   1.414280   2.452382   2.780139   2.409615
    13  N    2.598604   3.568793   4.903889   5.978018   6.070730
    14  C    1.433926   2.503940   3.786077   4.933109   5.173929
    15  H    3.402478   3.890386   3.418917   4.622337   5.827460
    16  H    4.635170   3.444098   2.182397   1.090464   2.129694
    17  H    5.330020   3.914459   3.432402   2.158077   1.088578
    18  H    4.626487   3.430413   3.916612   3.397255   2.149700
    19  H    2.739500   2.183384   3.449972   3.867435   3.377765
                   11         12         13         14         15
    11  C    0.000000
    12  C    1.396925   0.000000
    13  N    5.101420   3.737787   0.000000
    14  C    4.362634   2.967546   1.164827   0.000000
    15  H    6.096021   5.284419   5.606686   4.565668   0.000000
    16  H    3.376781   3.869672   6.981927   5.907620   4.848104
    17  H    2.149439   3.398172   7.104045   6.241550   6.735126
    18  H    1.088622   2.156372   5.577349   5.011747   7.144578
    19  H    2.131198   1.088023   3.150277   2.679772   5.922691
                   16         17         18         19
    16  H    0.000000
    17  H    2.439929   0.000000
    18  H    4.270658   2.479479   0.000000
    19  H    4.956388   4.272318   2.442366   0.000000
 Stoichiometry    C12H5N2(1-)
 Framework group  C1[X(C12H5N2)]
 Deg. of freedom    51
 Full point group                 C1      NOp   1
 Largest Abelian subgroup         C1      NOp   1
 Largest concise Abelian subgroup C1      NOp   1
                         Standard orientation:                         
 ---------------------------------------------------------------------
 Center     Atomic      Atomic             Coordinates (Angstroms)
 Number     Number       Type             X           Y           Z
 ---------------------------------------------------------------------
      1          7           0        3.992672   -1.003108    0.362240
      2          6           0        2.858455   -0.926864    0.119901
      3          6           0        1.425647   -0.858826   -0.089656
      4          6           0        0.747877   -2.056884   -0.378340
      5          6           0       -0.654494   -2.103906   -0.318872
      6          6           0       -1.399113   -0.951603   -0.074868
      7          6           0       -0.744163    0.303370   -0.036738
      8          6           0        0.691193    0.343915    0.013561
      9          6           0        1.317125    1.606183    0.091845
     10          6           0        0.590329    2.794786   -0.017790
     11          6           0       -0.789787    2.751375   -0.133694
     12          6           0       -1.455977    1.524381   -0.088127
     13          7           0       -3.937804   -1.226309    0.407134
     14          6           0       -2.802005   -1.106919    0.177947
     15          1           0        1.289067   -2.955640   -0.653127
     16          1           0        2.401355    1.690400    0.172247
     17          1           0        1.111710    3.749904   -0.048020
     18          1           0       -1.356150    3.670388   -0.274217
     19          1           0       -2.540572    1.536810   -0.173520
 ---------------------------------------------------------------------
 Rotational constants (GHZ):      1.0530277      0.6408426      0.4040010
 Standard basis: STO-3G (5D, 7F)
 There are    75 symmetry adapted cartesian basis functions of A   symmetry.
 There are    75 symmetry adapted basis functions of A   symmetry.
    75 basis functions,   225 primitive gaussians,    75 cartesian basis functions
    46 alpha electrons       46 beta electrons
       nuclear repulsion energy       713.9417431844 Hartrees.
 NAtoms=   19 NActive=   19 NUniq=   19 SFac= 1.00D+00 NAtFMM=   60 NAOKFM=F Big=F
 Integral buffers will be    131072 words long.
 Raffenetti 2 integral format.
 Two-electron integral symmetry is turned on.
 One-electron integrals computed using PRISM.
 NBasis=    75 RedAO= T EigKep=  1.56D-01  NBF=    75
 NBsUse=    75 1.00D-06 EigRej= -1.00D+00 NBFU=    75
 ExpMin= 1.69D-01 ExpMax= 9.91D+01 ExpMxC= 9.91D+01 IAcc=1 IRadAn=         1 AccDes= 0.00D+00
 Harris functional with IExCor=  402 and IRadAn=       1 diagonalized for initial guess.
 HarFok:  IExCor=  402 AccDes= 0.00D+00 IRadAn=         1 IDoV= 1 UseB2=F ITyADJ=14
 ICtDFT=  3500011 ScaDFX=  1.000000  1.000000  1.000000  1.000000
 FoFCou: FMM=F IPFlag=           0 FMFlag=      100000 FMFlg1=           0
         NFxFlg=           0 DoJE=T BraDBF=F KetDBF=T FulRan=T
         wScrn=  0.000000 ICntrl=     500 IOpCl=  0 I1Cent=   200000004 NGrid=           0
         NMat0=    1 NMatS0=      1 NMatT0=    0 NMatD0=    1 NMtDS0=    0 NMtDT0=    0
 Petite list used in FoFCou.
 Keep R1 ints in memory in canonical form, NReq=4993994.
 Requested convergence on RMS density matrix=1.00D-08 within 128 cycles.
 Requested convergence on MAX density matrix=1.00D-06.
 Requested convergence on             energy=1.00D-06.
 No special actions if energy rises.
 Integral accuracy reduced to 1.0D-05 until final iterations.
 Initial convergence to 1.0D-05 achieved.  Increase integral accuracy.
 SCF Done:  E(RB3LYP) =  -562.500535754     A.U. after   20 cycles
            NFock= 20  Conv=0.69D-08     -V/T= 2.0131

 **********************************************************************

            Population analysis using the SCF density.

 **********************************************************************

 Orbital symmetries:
       Occupied  (A) (A) (A) (A) (A) (A) (A) (A) (A) (A) (A) (A)
                 (A) (A) (A) (A) (A) (A) (A) (A) (A) (A) (A) (A)
                 (A) (A) (A) (A) (A) (A) (A) (A) (A) (A) (A) (A)
                 (A) (A) (A) (A) (A) (A) (A) (A) (A) (A)
       Virtual   (A) (A) (A) (A) (A) (A) (A) (A) (A) (A) (A) (A)
                 (A) (A) (A) (A) (A) (A) (A) (A) (A) (A) (A) (A)
                 (A) (A) (A) (A) (A)
 The electronic state is 1-A.
 Alpha  occ. eigenvalues --  -13.96612 -13.94563  -9.87575  -9.87522  -9.87162
 Alpha  occ. eigenvalues --   -9.86857  -9.86647  -9.86469  -9.86415  -9.86006
 Alpha  occ. eigenvalues --   -9.85777  -9.84167  -9.82564  -9.70194  -0.72305
 Alpha  occ. eigenvalues --   -0.70450  -0.68127  -0.62453  -0.58956  -0.54387
 Alpha  occ. eigenvalues --   -0.52752  -0.44543  -0.43167  -0.41271  -0.35042
 Alpha  occ. eigenvalues --   -0.32098  -0.30705  -0.28350  -0.25461  -0.24454
 Alpha  occ. eigenvalues --   -0.21956  -0.20911  -0.19191  -0.16823  -0.16475
 Alpha  occ. eigenvalues --   -0.15869  -0.14949  -0.13083  -0.12881  -0.11621
 Alpha  occ. eigenvalues --   -0.10440  -0.09633  -0.07324  -0.02874   0.00567
 Alpha  occ. eigenvalues --    0.10455
 Alpha virt. eigenvalues --    0.17393   0.23745   0.24098   0.29363   0.31018
 Alpha virt. eigenvalues --    0.31439   0.36270   0.38653   0.45450   0.48808
 Alpha virt. eigenvalues --    0.49306   0.52049   0.55012   0.58556   0.59515
 Alpha virt. eigenvalues --    0.60321   0.63247   0.64961   0.70163   0.72302
 Alpha virt. eigenvalues --    0.74385   0.77514   0.80384   0.85748   0.87593
 Alpha virt. eigenvalues --    0.96029   0.97572   1.15204   1.17910
          Condensed to atoms (all electrons):
               1          2          3          4          5          6
     1  N    6.601818   0.681593  -0.011553  -0.000213  -0.000002   0.000000
     2  C    0.681593   4.913612   0.421561  -0.031436   0.001046   0.000040
     3  C   -0.011553   0.421561   4.811923   0.477754  -0.025872  -0.010808
     4  C   -0.000213  -0.031436   0.477754   4.876502   0.474902  -0.029217
     5  C   -0.000002   0.001046  -0.025872   0.474902   5.339135   0.487530
     6  C    0.000000   0.000040  -0.010808  -0.029217   0.487530   4.826601
     7  C   -0.000002   0.000815  -0.028836  -0.011264  -0.028686   0.452697
     8  C   -0.000006  -0.028483   0.474024  -0.032053  -0.012006  -0.030642
     9  C   -0.000080  -0.004376  -0.030733   0.000809   0.000062   0.000902
    10  C    0.000000   0.000017   0.000863  -0.000008   0.000000   0.000036
    11  C    0.000000  -0.000001   0.000035   0.000000  -0.000014   0.000896
    12  C    0.000000  -0.000005   0.000902   0.000062   0.000982  -0.030729
    13  N    0.000000   0.000000   0.000000  -0.000002  -0.000113  -0.011607
    14  C    0.000000   0.000000   0.000003   0.001295  -0.038010   0.425420
    15  H    0.000070  -0.003441  -0.030991   0.389214  -0.034715   0.001903
    16  H   -0.000109   0.001282  -0.003834   0.000022  -0.000001  -0.000018
    17  H    0.000000  -0.000001  -0.000018   0.000000   0.000000   0.000001
    18  H    0.000000   0.000000   0.000001   0.000000   0.000000  -0.000019
    19  H    0.000000   0.000000  -0.000018   0.000000   0.000028  -0.003950
               7          8          9         10         11         12
     1  N   -0.000002  -0.000006  -0.000080   0.000000   0.000000   0.000000
     2  C    0.000815  -0.028483  -0.004376   0.000017  -0.000001  -0.000005
     3  C   -0.028836   0.474024  -0.030733   0.000863   0.000035   0.000902
     4  C   -0.011264  -0.032053   0.000809  -0.000008   0.000000   0.000062
     5  C   -0.028686  -0.012006   0.000062   0.000000  -0.000014   0.000982
     6  C    0.452697  -0.030642   0.000902   0.000036   0.000896  -0.030729
     7  C    4.797370   0.468241  -0.027916  -0.010320  -0.028122   0.481851
     8  C    0.468241   4.777748   0.484987  -0.027845  -0.010031  -0.028697
     9  C   -0.027916   0.484987   4.832843   0.515421  -0.031565  -0.012365
    10  C   -0.010320  -0.027845   0.515421   4.824671   0.496339  -0.031380
    11  C   -0.028122  -0.010031  -0.031565   0.496339   4.827876   0.512989
    12  C    0.481851  -0.028697  -0.012365  -0.031380   0.512989   4.837805
    13  N    0.000045  -0.000001   0.000000   0.000000   0.000000  -0.000082
    14  C   -0.034145   0.000776  -0.000007   0.000000   0.000011  -0.003843
    15  H   -0.000006   0.001199  -0.000018   0.000000   0.000000   0.000002
    16  H    0.001345  -0.024517   0.388885  -0.028099   0.001573   0.000047
    17  H    0.000031   0.001380  -0.025851   0.390783  -0.026783   0.001548
    18  H    0.001407   0.000027   0.001560  -0.026897   0.390033  -0.025930
    19  H   -0.024497   0.001306   0.000047   0.001563  -0.028227   0.390167
              13         14         15         16         17         18
     1  N    0.000000   0.000000   0.000070  -0.000109   0.000000   0.000000
     2  C    0.000000   0.000000  -0.003441   0.001282  -0.000001   0.000000
     3  C    0.000000   0.000003  -0.030991  -0.003834  -0.000018   0.000001
     4  C   -0.000002   0.001295   0.389214   0.000022   0.000000   0.000000
     5  C   -0.000113  -0.038010  -0.034715  -0.000001   0.000000   0.000000
     6  C   -0.011607   0.425420   0.001903  -0.000018   0.000001  -0.000019
     7  C    0.000045  -0.034145  -0.000006   0.001345   0.000031   0.001407
     8  C   -0.000001   0.000776   0.001199  -0.024517   0.001380   0.000027
     9  C    0.000000  -0.000007  -0.000018   0.388885  -0.025851   0.001560
    10  C    0.000000   0.000000   0.000000  -0.028099   0.390783  -0.026897
    11  C    0.000000   0.000011   0.000000   0.001573  -0.026783   0.390033
    12  C   -0.000082  -0.003843   0.000002   0.000047   0.001548  -0.025930
    13  N    6.610867   0.682461   0.000000   0.000000   0.000000   0.000000
    14  C    0.682461   4.909174  -0.000007   0.000000   0.000000   0.000000
    15  H    0.000000  -0.000007   0.632979  -0.000001   0.000000   0.000000
    16  H    0.000000   0.000000  -0.000001   0.604289  -0.004246  -0.000041
    17  H    0.000000   0.000000   0.000000  -0.004246   0.615248  -0.003918
    18  H    0.000000   0.000000   0.000000  -0.000041  -0.003918   0.617016
    19  H   -0.000078   0.001300   0.000000   0.000002  -0.000041  -0.004149
              19
     1  N    0.000000
     2  C    0.000000
     3  C   -0.000018
     4  C    0.000000
     5  C    0.000028
     6  C   -0.003950
     7  C   -0.024497
     8  C    0.001306
     9  C    0.000047
    10  C    0.001563
    11  C   -0.028227
    12  C    0.390167
    13  N   -0.000078
    14  C    0.001300
    15  H    0.000000
    16  H    0.000002
    17  H   -0.000041
    18  H   -0.004149
    19  H    0.601328
 Mulliken charges:
               1
     1  N   -0.271516
     2  C    0.047775
     3  C   -0.044404
     4  C   -0.116367
     5  C   -0.164265
     6  C   -0.079035
     7  C   -0.010008
     8  C   -0.015408
     9  C   -0.092606
    10  C   -0.105144
    11  C   -0.105009
    12  C   -0.093323
    13  N   -0.281490
    14  C    0.055571
    15  H    0.043811
    16  H    0.063421
    17  H    0.051867
    18  H    0.050910
    19  H    0.065219
 Sum of Mulliken charges =  -1.00000
 Mulliken charges with hydrogens summed into heavy atoms:
               1
     1  N   -0.271516
     2  C    0.047775
     3  C   -0.044404
     4  C   -0.072556
     5  C   -0.164265
     6  C   -0.079035
     7  C   -0.010008
     8  C   -0.015408
     9  C   -0.029185
    10  C   -0.053277
    11  C   -0.054098
    12  C   -0.028104
    13  N   -0.281490
    14  C    0.055571
 Electronic spatial extent (au):  <R**2>=           2565.3808
 Charge=             -1.0000 electrons
 Dipole moment (field-independent basis, Debye):
    X=              1.1947    Y=              4.9906    Z=             -0.6776  Tot=              5.1762
 Quadrupole moment (field-independent basis, Debye-Ang):
   XX=           -120.8743   YY=            -88.2305   ZZ=            -74.8523
   XY=             -4.5173   XZ=              0.2252   YZ=              0.0692
 Traceless Quadrupole moment (field-independent basis, Debye-Ang):
   XX=            -26.2219   YY=              6.4219   ZZ=             19.8001
   XY=             -4.5173   XZ=              0.2252   YZ=              0.0692
 Octapole moment (field-independent basis, Debye-Ang**2):
  XXX=             -0.5235  YYY=             23.8674  ZZZ=              1.9417  XYY=             13.4898
  XXY=             60.7700  XXZ=            -23.0276  XZZ=              0.2585  YZZ=             -2.0443
  YYZ=              1.0239  XYZ=              0.4946
 Hexadecapole moment (field-independent basis, Debye-Ang**3):
 XXXX=          -2813.1108 YYYY=          -1348.7102 ZZZZ=            -80.2802 XXXY=            -27.5222
 XXXZ=              5.1369 YYYX=            -32.5347 YYYZ=            -10.6182 ZZZX=             -0.1393
 ZZZY=             -2.0232 XXYY=           -587.3762 XXZZ=           -336.2685 YYZZ=           -237.0008
 XXYZ=             25.6414 YYXZ=             -0.5847 ZZXY=             -0.3724
 N-N= 7.139417431844D+02 E-N=-2.750256251162D+03  KE= 5.552000456038D+02
 Calling FoFJK, ICntrl=      2127 FMM=F ISym2X=0 I1Cent= 0 IOpClX= 0 NMat=1 NMatS=1 NMatT=0.
 ***** Axes restored to original set *****
 -------------------------------------------------------------------
 Center     Atomic                   Forces (Hartrees/Bohr)
 Number     Number              X              Y              Z
 -------------------------------------------------------------------
      1        7          -0.091022842    0.035075750   -0.031543791
      2        6           0.079839988   -0.036947137    0.038107927
      3        6          -0.013783528    0.034740167   -0.021703595
      4        6           0.016701368   -0.015932227    0.009392874
      5        6           0.031862478    0.031983457   -0.009920773
      6        6          -0.008418680    0.022204163   -0.032825642
      7        6          -0.000225134   -0.028569571    0.015061094
      8        6          -0.004373230   -0.011791361    0.012240383
      9        6          -0.015448321   -0.020148088    0.011801043
     10        6          -0.022604087    0.011326215   -0.013205332
     11        6           0.028004712   -0.001179189    0.009059494
     12        6          -0.011138810   -0.021869843    0.006154811
     13        7           0.083365750    0.002101069    0.040663825
     14        6          -0.065588529   -0.004420302   -0.021280915
     15        1          -0.007748420    0.001750276   -0.015521529
     16        1          -0.003895844    0.005301201   -0.005890745
     17        1          -0.006295977   -0.002770080    0.002542785
     18        1           0.001017834   -0.004110737    0.007011770
     19        1           0.009751273    0.003256237   -0.000143685
 -------------------------------------------------------------------
 Cartesian Forces:  Max     0.091022842 RMS     0.027914759

 GradGradGradGradGradGradGradGradGradGradGradGradGradGradGradGradGradGrad
 Berny optimization.
 FormGI is forming the generalized inverse of G from B-inverse, IUseBI=4.
 Internal  Forces:  Max     0.102379133 RMS     0.018063010
 Search for a local minimum.
 Step number   1 out of a maximum of  102
 All quantities printed in internal units (Hartrees-Bohrs-Radians)
 Mixed Optimization -- RFO/linear search
 Second derivative matrix not updated -- first step.
 ITU=  0
     Eigenvalues ---    0.01432   0.01432   0.01804   0.01838   0.01863
     Eigenvalues ---    0.01956   0.01969   0.02012   0.02016   0.02031
     Eigenvalues ---    0.02036   0.02070   0.02088   0.02181   0.02183
     Eigenvalues ---    0.02221   0.04803   0.04803   0.15946   0.15959
     Eigenvalues ---    0.15990   0.15999   0.16000   0.21960   0.22558
     Eigenvalues ---    0.23222   0.24394   0.24823   0.24942   0.24986
     Eigenvalues ---    0.24994   0.34759   0.34972   0.34978   0.35042
     Eigenvalues ---    0.35455   0.36607   0.38291   0.40282   0.40430
     Eigenvalues ---    0.40791   0.42473   0.42947   0.43828   0.44381
     Eigenvalues ---    0.45106   0.45388   0.46083   0.47278   1.24686
     Eigenvalues ---    1.26287
 RFO step:  Lambda=-4.72443182D-02 EMin= 1.43199522D-02
 Linear search not attempted -- first point.
 Maximum step size (   0.300) exceeded in Quadratic search.
    -- Step size scaled by   0.868
 Iteration  1 RMS(Cart)=  0.05151750 RMS(Int)=  0.00262564
 Iteration  2 RMS(Cart)=  0.00331195 RMS(Int)=  0.00052780
 Iteration  3 RMS(Cart)=  0.00001506 RMS(Int)=  0.00052772
 Iteration  4 RMS(Cart)=  0.00000000 RMS(Int)=  0.00052772
 Variable       Old X    -DE/DX   Delta X   Delta X   Delta X     New X
                                 (Linear)    (Quad)   (Total)
    R1        2.19647   0.10238   0.00000   0.06784   0.06784   2.26431
    R2        2.73944   0.00759   0.00000   0.01532   0.01532   2.75476
    R3        2.65777   0.02395   0.00000   0.04124   0.04106   2.69883
    R4        2.67025   0.03533   0.00000   0.06327   0.06327   2.73351
    R5        2.65397   0.01667   0.00000   0.02821   0.02813   2.68210
    R6        2.04942   0.01450   0.00000   0.03132   0.03132   2.08074
    R7        2.63330   0.01906   0.00000   0.03225   0.03230   2.66560
    R8        2.67606   0.04653   0.00000   0.08584   0.08592   2.76198
    R9        2.70973   0.02461   0.00000   0.04731   0.04731   2.75703
   R10        2.71518   0.01622   0.00000   0.03180   0.03197   2.74715
   R11        2.67260   0.01843   0.00000   0.03293   0.03301   2.70561
   R12        2.66662   0.02159   0.00000   0.03840   0.03836   2.70497
   R13        2.64091   0.00035   0.00000   0.00099   0.00092   2.64183
   R14        2.06068   0.00622   0.00000   0.01368   0.01368   2.07436
   R15        2.61851   0.03572   0.00000   0.05926   0.05923   2.67773
   R16        2.05711   0.00711   0.00000   0.01554   0.01554   2.07265
   R17        2.63981   0.00290   0.00000   0.00510   0.00513   2.64493
   R18        2.05720   0.00743   0.00000   0.01624   0.01624   2.07344
   R19        2.05606   0.00806   0.00000   0.01760   0.01760   2.07366
   R20        2.20120   0.09271   0.00000   0.06220   0.06220   2.26340
    A1        2.05556   0.00998   0.00000   0.03225   0.03217   2.08774
    A2        2.14495  -0.01154   0.00000  -0.03080  -0.03090   2.11404
    A3        2.08241   0.00164   0.00000  -0.00031  -0.00133   2.08108
    A4        2.09559   0.01492   0.00000   0.04241   0.04131   2.13690
    A5        2.11468  -0.01508   0.00000  -0.05309  -0.05265   2.06204
    A6        2.07290   0.00017   0.00000   0.01077   0.01119   2.08409
    A7        2.10983  -0.02242   0.00000  -0.07144  -0.07209   2.03774
    A8        2.08335   0.01943   0.00000   0.05668   0.05650   2.13985
    A9        2.05341  -0.00049   0.00000  -0.00162  -0.00160   2.05182
   A10        2.14567  -0.01895   0.00000  -0.05552  -0.05544   2.09024
   A11        2.08057  -0.00852   0.00000  -0.02364  -0.02384   2.05673
   A12        2.13099   0.01091   0.00000   0.03302   0.03249   2.16348
   A13        2.07111  -0.00230   0.00000  -0.00792  -0.00822   2.06289
   A14        2.08595  -0.00617   0.00000  -0.01954  -0.01971   2.06624
   A15        2.13517   0.00338   0.00000   0.01117   0.01123   2.14641
   A16        2.06044   0.00282   0.00000   0.00858   0.00865   2.06909
   A17        2.12441  -0.00157   0.00000  -0.00453  -0.00474   2.11967
   A18        2.11088  -0.00553   0.00000  -0.02368  -0.02373   2.08715
   A19        2.04563   0.00724   0.00000   0.02982   0.02979   2.07542
   A20        2.09198   0.00039   0.00000   0.00325   0.00310   2.09508
   A21        2.09362  -0.00119   0.00000  -0.00563  -0.00561   2.08801
   A22        2.09695   0.00084   0.00000   0.00291   0.00293   2.09988
   A23        2.09414  -0.00078   0.00000  -0.00115  -0.00118   2.09297
   A24        2.09732   0.00062   0.00000   0.00160   0.00160   2.09892
   A25        2.09163   0.00016   0.00000  -0.00036  -0.00036   2.09127
   A26        2.11704   0.00184   0.00000   0.00644   0.00628   2.12332
   A27        2.11114  -0.00729   0.00000  -0.02897  -0.02935   2.08179
   A28        2.05195   0.00568   0.00000   0.02579   0.02547   2.07742
   A29        3.15693   0.00501   0.00000   0.07059   0.07059   3.22752
   A30        3.13813   0.00362   0.00000   0.03300   0.03300   3.17113
   A31        3.20930  -0.01039   0.00000  -0.14646  -0.14646   3.06285
   A32        3.16337  -0.00653   0.00000  -0.05953  -0.05953   3.10385
    D1        2.91282  -0.00437   0.00000  -0.03763  -0.03839   2.87443
    D2       -0.23314  -0.00165   0.00000  -0.01461  -0.01483  -0.24797
    D3       -0.20443  -0.00763   0.00000  -0.08835  -0.09003  -0.29445
    D4        2.93279  -0.00491   0.00000  -0.06534  -0.06646   2.86633
    D5       -3.00167  -0.00321   0.00000  -0.03101  -0.03184  -3.03351
    D6        0.20235  -0.00377   0.00000  -0.03539  -0.03552   0.16683
    D7        0.11427   0.00055   0.00000   0.02339   0.02152   0.13579
    D8       -2.96490  -0.00002   0.00000   0.01901   0.01785  -2.94705
    D9        0.08518   0.00702   0.00000   0.08385   0.08392   0.16910
   D10       -3.05214   0.00440   0.00000   0.06154   0.06022  -2.99192
   D11        0.12504  -0.00092   0.00000  -0.01663  -0.01587   0.10917
   D12       -2.97610  -0.00036   0.00000  -0.00284  -0.00180  -2.97790
   D13       -0.21199  -0.00398   0.00000  -0.04229  -0.04166  -0.25365
   D14        2.89483  -0.00066   0.00000   0.00720   0.00748   2.90231
   D15        2.88691  -0.00405   0.00000  -0.05534  -0.05466   2.83226
   D16       -0.28945  -0.00073   0.00000  -0.00585  -0.00552  -0.29497
   D17        0.09273   0.00147   0.00000   0.03086   0.02989   0.12262
   D18       -3.10863   0.00205   0.00000   0.03520   0.03355  -3.07508
   D19       -3.01529  -0.00200   0.00000  -0.01776  -0.01721  -3.03250
   D20        0.06654  -0.00142   0.00000  -0.01342  -0.01355   0.05299
   D21       -3.07086  -0.00447   0.00000  -0.06921  -0.06938  -3.14024
   D22       -0.01519  -0.00090   0.00000  -0.02207  -0.02279  -0.03798
   D23        0.03614  -0.00130   0.00000  -0.02029  -0.02037   0.01577
   D24        3.09181   0.00228   0.00000   0.02685   0.02622   3.11803
   D25        2.96310   0.00322   0.00000   0.03644   0.03583   2.99893
   D26       -0.10425   0.00062   0.00000   0.00882   0.00873  -0.09552
   D27       -0.11693   0.00297   0.00000   0.03308   0.03312  -0.08382
   D28        3.09890   0.00037   0.00000   0.00546   0.00601   3.10491
   D29        0.06271  -0.00156   0.00000  -0.01827  -0.01825   0.04447
   D30       -3.04049  -0.00284   0.00000  -0.03432  -0.03436  -3.07485
   D31        3.13272   0.00044   0.00000   0.00624   0.00651   3.13923
   D32        0.02952  -0.00083   0.00000  -0.00980  -0.00960   0.01992
   D33        0.04374  -0.00160   0.00000  -0.01731  -0.01725   0.02648
   D34       -3.08298  -0.00186   0.00000  -0.02440  -0.02460  -3.10758
   D35       -3.13632  -0.00037   0.00000  -0.00142  -0.00122  -3.13754
   D36        0.02015  -0.00063   0.00000  -0.00851  -0.00857   0.01158
   D37       -0.09301   0.00299   0.00000   0.03647   0.03652  -0.05649
   D38        3.13170   0.00014   0.00000  -0.00655  -0.00736   3.12434
   D39        3.03376   0.00325   0.00000   0.04355   0.04385   3.07761
   D40       -0.02472   0.00040   0.00000   0.00053  -0.00002  -0.02474
         Item               Value     Threshold  Converged?
 Maximum Force            0.102379     0.000450     NO 
 RMS     Force            0.018063     0.000300     NO 
 Maximum Displacement     0.240895     0.001800     NO 
 RMS     Displacement     0.051480     0.001200     NO 
 Predicted change in Energy=-2.651249D-02
 GradGradGradGradGradGradGradGradGradGradGradGradGradGradGradGradGradGrad

                          Input orientation:                          
 ---------------------------------------------------------------------
 Center     Atomic      Atomic             Coordinates (Angstroms)
 Number     Number       Type             X           Y           Z
 ---------------------------------------------------------------------
      1          7           0        2.603591    4.778775   -2.818586
      2          6           0        3.644667    4.412545   -2.351928
      3          6           0        4.975650    3.985806   -1.937881
      4          6           0        6.126243    4.564673   -2.554884
      5          6           0        7.427946    4.444658   -2.002081
      6          6           0        7.579254    3.549647   -0.922364
      7          6           0        6.500242    2.675160   -0.467161
      8          6           0        5.153290    2.959119   -0.934507
      9          6           0        4.073524    2.164113   -0.433506
     10          6           0        4.301696    1.071177    0.407816
     11          6           0        5.619481    0.761206    0.826431
     12          6           0        6.688524    1.569244    0.422444
     13          7           0        9.920096    3.583261    0.332023
     14          6           0        8.850288    3.564535   -0.206253
     15          1           0        5.984171    5.138159   -3.484029
     16          1           0        3.045601    2.386098   -0.748231
     17          1           0        3.458706    0.444612    0.723656
     18          1           0        5.806579   -0.114353    1.460686
     19          1           0        7.700861    1.325235    0.768535
 ---------------------------------------------------------------------
                    Distance matrix (angstroms):
                    1          2          3          4          5
     1  N    0.000000
     2  C    1.198222   0.000000
     3  C    2.651623   1.457757   0.000000
     4  C    3.538991   2.494504   1.428161   0.000000
     5  C    4.904357   3.799555   2.495681   1.419305   0.000000
     6  C    5.464763   4.274250   2.828473   2.409697   1.410577
     7  C    5.013809   3.837337   2.491021   2.840550   2.519471
     8  C    3.655389   2.529322   1.446513   2.479932   2.919006
     9  C    3.832202   2.986588   2.528941   3.804812   4.348961
    10  C    5.199953   4.383219   3.801522   4.930627   5.192438
    11  C    6.206658   5.228205   4.295810   5.114339   4.983858
    12  C    6.123075   5.004654   3.787458   4.260662   3.833154
    13  N    8.055237   6.875486   5.455461   4.867312   3.521485
    14  C    6.878945   5.693990   4.264835   3.733198   2.454113
    15  H    3.464144   2.698416   2.176145   1.101081   2.182109
    16  H    3.194785   2.652774   2.774783   4.183365   5.001476
    17  H    5.662479   5.023772   4.682408   5.902498   6.259782
    18  H    7.246655   6.301007   5.389991   6.174162   5.950140
    19  H    7.125766   5.976745   4.672269   4.900867   4.181099
                    6          7          8          9         10
     6  C    0.000000
     7  C    1.461576   0.000000
     8  C    2.496832   1.453727   0.000000
     9  C    3.801162   2.480174   1.431410   0.000000
    10  C    4.319094   2.858662   2.468070   1.397996   0.000000
    11  C    3.830718   2.472315   2.854656   2.438354   1.416996
    12  C    2.554193   1.431746   2.475886   2.815092   2.438285
    13  N    2.655967   3.627499   4.971528   6.064851   6.154895
    14  C    1.458960   2.526218   3.816369   4.983001   5.223371
    15  H    3.410247   3.928636   3.455233   4.669177   5.875161
    16  H    4.683821   3.478089   2.192124   1.097705   2.154817
    17  H    5.415675   3.955291   3.455990   2.161875   1.096800
    18  H    4.716588   3.461090   3.950945   3.432615   2.186021
    19  H    2.796772   2.188774   3.472758   3.912313   3.427680
                   11         12         13         14         15
    11  C    0.000000
    12  C    1.399638   0.000000
    13  N    5.167565   3.808871   0.000000
    14  C    4.400364   3.008266   1.197740   0.000000
    15  H    6.153924   5.337958   5.698373   4.629766   0.000000
    16  H    3.427053   3.912623   7.061079   5.947844   4.867610
    17  H    2.186262   3.433257   7.194029   6.298238   6.790579
    18  H    1.097218   2.165704   5.645109   5.057377   7.215998
    19  H    2.157226   1.097336   3.195971   2.699232   5.964034
                   16         17         18         19
    16  H    0.000000
    17  H    2.471128   0.000000
    18  H    4.330655   2.523521   0.000000
    19  H    5.009736   4.332827   2.477861   0.000000
 Stoichiometry    C12H5N2(1-)
 Framework group  C1[X(C12H5N2)]
 Deg. of freedom    51
 Full point group                 C1      NOp   1
 Largest Abelian subgroup         C1      NOp   1
 Largest concise Abelian subgroup C1      NOp   1
                         Standard orientation:                         
 ---------------------------------------------------------------------
 Center     Atomic      Atomic             Coordinates (Angstroms)
 Number     Number       Type             X           Y           Z
 ---------------------------------------------------------------------
      1          7           0        4.057922   -1.047997    0.273619
      2          6           0        2.870444   -0.916545    0.182236
      3          6           0        1.431062   -0.877412   -0.045151
      4          6           0        0.735409   -2.080651   -0.373671
      5          6           0       -0.677792   -2.187913   -0.297622
      6          6           0       -1.394816   -0.992033   -0.084367
      7          6           0       -0.752571    0.320859   -0.078054
      8          6           0        0.696936    0.367129    0.022502
      9          6           0        1.335941    1.644759    0.113439
     10          6           0        0.607935    2.833550    0.007721
     11          6           0       -0.800738    2.791931   -0.139879
     12          6           0       -1.465737    1.560388   -0.147768
     13          7           0       -3.994094   -1.234176    0.404791
     14          6           0       -2.820470   -1.102259    0.205329
     15          1           0        1.328490   -2.956682   -0.678965
     16          1           0        2.426647    1.698495    0.224918
     17          1           0        1.135253    3.795209    0.018600
     18          1           0       -1.372286    3.721406   -0.255198
     19          1           0       -2.558525    1.545962   -0.246515
 ---------------------------------------------------------------------
 Rotational constants (GHZ):      1.0170848      0.6268559      0.3929307
 Standard basis: STO-3G (5D, 7F)
 There are    75 symmetry adapted cartesian basis functions of A   symmetry.
 There are    75 symmetry adapted basis functions of A   symmetry.
    75 basis functions,   225 primitive gaussians,    75 cartesian basis functions
    46 alpha electrons       46 beta electrons
       nuclear repulsion energy       703.6449315234 Hartrees.
 NAtoms=   19 NActive=   19 NUniq=   19 SFac= 1.00D+00 NAtFMM=   60 NAOKFM=F Big=F
 Integral buffers will be    131072 words long.
 Raffenetti 2 integral format.
 Two-electron integral symmetry is turned on.
 One-electron integrals computed using PRISM.
 NBasis=    75 RedAO= T EigKep=  1.74D-01  NBF=    75
 NBsUse=    75 1.00D-06 EigRej= -1.00D+00 NBFU=    75
 Initial guess from the checkpoint file:  "/tmp/bnp.472684.sequoia/Gau-2452.chk"
 B after Tr=     0.000000    0.000000    0.000000
         Rot=    1.000000    0.000282   -0.000144    0.000914 Ang=   0.11 deg.
 ExpMin= 1.69D-01 ExpMax= 9.91D+01 ExpMxC= 9.91D+01 IAcc=1 IRadAn=         1 AccDes= 0.00D+00
 Harris functional with IExCor=  402 and IRadAn=       1 diagonalized for initial guess.
 HarFok:  IExCor=  402 AccDes= 0.00D+00 IRadAn=         1 IDoV= 1 UseB2=F ITyADJ=14
 ICtDFT=  3500011 ScaDFX=  1.000000  1.000000  1.000000  1.000000
 FoFCou: FMM=F IPFlag=           0 FMFlag=      100000 FMFlg1=           0
         NFxFlg=           0 DoJE=T BraDBF=F KetDBF=T FulRan=T
         wScrn=  0.000000 ICntrl=     500 IOpCl=  0 I1Cent=   200000004 NGrid=           0
         NMat0=    1 NMatS0=      1 NMatT0=    0 NMatD0=    1 NMtDS0=    0 NMtDT0=    0
 Petite list used in FoFCou.
 Keep R1 ints in memory in canonical form, NReq=4993994.
 Requested convergence on RMS density matrix=1.00D-08 within 128 cycles.
 Requested convergence on MAX density matrix=1.00D-06.
 Requested convergence on             energy=1.00D-06.
 No special actions if energy rises.
 Integral accuracy reduced to 1.0D-05 until final iterations.
 Initial convergence to 1.0D-05 achieved.  Increase integral accuracy.
 SCF Done:  E(RB3LYP) =  -562.523744482     A.U. after   16 cycles
            NFock= 16  Conv=0.82D-08     -V/T= 2.0141
 Calling FoFJK, ICntrl=      2127 FMM=F ISym2X=0 I1Cent= 0 IOpClX= 0 NMat=1 NMatS=1 NMatT=0.
 ***** Axes restored to original set *****
 -------------------------------------------------------------------
 Center     Atomic                   Forces (Hartrees/Bohr)
 Number     Number              X              Y              Z
 -------------------------------------------------------------------
      1        7          -0.009321698    0.003171909   -0.001530952
      2        6           0.009830267   -0.006011992    0.001150380
      3        6          -0.002030093    0.015894376   -0.004859669
      4        6          -0.001825663   -0.010260792    0.004473244
      5        6           0.010731687    0.009272318    0.003111511
      6        6          -0.009957935    0.006551953   -0.011733721
      7        6           0.000741988   -0.008642269    0.002765191
      8        6           0.003037794   -0.002911465    0.004195774
      9        6          -0.002456842   -0.007709212    0.004772653
     10        6          -0.004102296    0.005518606   -0.005398713
     11        6           0.008509132    0.002961386    0.000558506
     12        6          -0.005496680   -0.007622630   -0.000238242
     13        7           0.006156839    0.000105508    0.003565821
     14        6          -0.002010810   -0.002862286    0.002005473
     15        1          -0.003034889   -0.001403364   -0.002829022
     16        1           0.000417109    0.001785134   -0.002474743
     17        1          -0.000288097   -0.000238529    0.001297245
     18        1          -0.000867407    0.000764876    0.002134939
     19        1           0.001967594    0.001636472   -0.000965677
 -------------------------------------------------------------------
 Cartesian Forces:  Max     0.015894376 RMS     0.005455536

 GradGradGradGradGradGradGradGradGradGradGradGradGradGradGradGradGradGrad
 Berny optimization.
 Using GEDIIS/GDIIS optimizer.
 FormGI is forming the generalized inverse of G from B-inverse, IUseBI=4.
 Internal  Forces:  Max     0.009663940 RMS     0.003013984
 Search for a local minimum.
 Step number   2 out of a maximum of  102
 All quantities printed in internal units (Hartrees-Bohrs-Radians)
 Mixed Optimization -- RFO/linear search
 Update second derivatives using D2CorX and points    1    2
 DE= -2.32D-02 DEPred=-2.65D-02 R= 8.75D-01
 TightC=F SS=  1.41D+00  RLast= 3.74D-01 DXNew= 5.0454D-01 1.1217D+00
 Trust test= 8.75D-01 RLast= 3.74D-01 DXMaxT set to 5.05D-01
 ITU=  1  0
 Use linear search instead of GDIIS.
     Eigenvalues ---    0.01432   0.01553   0.01810   0.01853   0.01862
     Eigenvalues ---    0.01958   0.01988   0.02013   0.02019   0.02032
     Eigenvalues ---    0.02057   0.02081   0.02175   0.02179   0.02219
     Eigenvalues ---    0.02274   0.04803   0.04915   0.15757   0.15985
     Eigenvalues ---    0.15994   0.15998   0.16022   0.21974   0.22293
     Eigenvalues ---    0.22597   0.24114   0.24462   0.24868   0.24959
     Eigenvalues ---    0.25055   0.34765   0.34975   0.34999   0.35049
     Eigenvalues ---    0.35461   0.36931   0.38352   0.40078   0.40293
     Eigenvalues ---    0.40778   0.42475   0.42857   0.43689   0.44493
     Eigenvalues ---    0.45137   0.45848   0.46832   0.48297   1.25289
     Eigenvalues ---    1.26295
 RFO step:  Lambda=-7.05260082D-03 EMin= 1.43159612D-02
 Quartic linear search produced a step of  0.20750.
 Iteration  1 RMS(Cart)=  0.07877463 RMS(Int)=  0.01089138
 Iteration  2 RMS(Cart)=  0.01648374 RMS(Int)=  0.00102172
 Iteration  3 RMS(Cart)=  0.00064585 RMS(Int)=  0.00084784
 Iteration  4 RMS(Cart)=  0.00000097 RMS(Int)=  0.00084784
 Variable       Old X    -DE/DX   Delta X   Delta X   Delta X     New X
                                 (Linear)    (Quad)   (Total)
    R1        2.26431   0.00966   0.01408   0.00379   0.01787   2.28218
    R2        2.75476  -0.00117   0.00318  -0.00497  -0.00179   2.75298
    R3        2.69883  -0.00250   0.00852  -0.01093  -0.00269   2.69614
    R4        2.73351   0.00646   0.01313   0.01164   0.02485   2.75836
    R5        2.68210   0.00606   0.00584   0.01312   0.01869   2.70078
    R6        2.08074   0.00205   0.00650   0.00402   0.01051   2.09126
    R7        2.66560   0.00061   0.00670  -0.00086   0.00579   2.67139
    R8        2.76198   0.00467   0.01783   0.00628   0.02428   2.78626
    R9        2.75703   0.00632   0.00982   0.01434   0.02416   2.78119
   R10        2.74715  -0.00202   0.00663  -0.00874  -0.00171   2.74544
   R11        2.70561   0.00036   0.00685  -0.00216   0.00487   2.71048
   R12        2.70497   0.00205   0.00796   0.00213   0.00995   2.71492
   R13        2.64183  -0.00433   0.00019  -0.01093  -0.01094   2.63089
   R14        2.07436   0.00067   0.00284   0.00103   0.00387   2.07823
   R15        2.67773   0.00565   0.01229   0.00922   0.02145   2.69918
   R16        2.07265   0.00073   0.00322   0.00108   0.00430   2.07695
   R17        2.64493  -0.00453   0.00106  -0.01200  -0.01081   2.63413
   R18        2.07344   0.00048   0.00337   0.00015   0.00352   2.07696
   R19        2.07366   0.00114   0.00365   0.00228   0.00593   2.07959
   R20        2.26340   0.00710   0.01291   0.00190   0.01480   2.27820
    A1        2.08774   0.00420   0.00668   0.01937   0.02583   2.11357
    A2        2.11404  -0.00342  -0.00641  -0.01027  -0.01702   2.09702
    A3        2.08108  -0.00082  -0.00028  -0.01076  -0.01357   2.06751
    A4        2.13690   0.00466   0.00857   0.01417   0.02012   2.15703
    A5        2.06204  -0.00562  -0.01092  -0.02759  -0.03759   2.02445
    A6        2.08409   0.00093   0.00232   0.01279   0.01590   2.09999
    A7        2.03774  -0.00859  -0.01496  -0.03925  -0.05618   1.98156
    A8        2.13985   0.00705   0.01172   0.02588   0.03681   2.17667
    A9        2.05182   0.00234  -0.00033   0.01161   0.01151   2.06333
   A10        2.09024  -0.00940  -0.01150  -0.03826  -0.04939   2.04085
   A11        2.05673  -0.00279  -0.00495  -0.01274  -0.01854   2.03819
   A12        2.16348   0.00204   0.00674   0.00781   0.01346   2.17693
   A13        2.06289   0.00073  -0.00171   0.00408   0.00149   2.06439
   A14        2.06624  -0.00018  -0.00409  -0.00314  -0.00768   2.05856
   A15        2.14641  -0.00012   0.00233   0.00063   0.00341   2.14982
   A16        2.06909   0.00030   0.00179   0.00227   0.00401   2.07309
   A17        2.11967  -0.00079  -0.00098  -0.00275  -0.00461   2.11506
   A18        2.08715  -0.00256  -0.00492  -0.01649  -0.02140   2.06575
   A19        2.07542   0.00340   0.00618   0.02075   0.02694   2.10237
   A20        2.09508   0.00025   0.00064   0.00278   0.00280   2.09788
   A21        2.08801   0.00055  -0.00116   0.00410   0.00309   2.09110
   A22        2.09988  -0.00079   0.00061  -0.00645  -0.00568   2.09419
   A23        2.09297  -0.00009  -0.00024   0.00085   0.00039   2.09336
   A24        2.09892  -0.00067   0.00033  -0.00562  -0.00524   2.09368
   A25        2.09127   0.00076  -0.00007   0.00486   0.00484   2.09612
   A26        2.12332  -0.00024   0.00130  -0.00145  -0.00125   2.12207
   A27        2.08179  -0.00241  -0.00609  -0.01363  -0.02085   2.06094
   A28        2.07742   0.00272   0.00529   0.01771   0.02174   2.09916
   A29        3.22752  -0.00327   0.01465  -0.20601  -0.19136   3.03616
   A30        3.17113  -0.00052   0.00685  -0.01690  -0.01005   3.16108
   A31        3.06285   0.00425  -0.03039   0.28506   0.25467   3.31752
   A32        3.10385   0.00077  -0.01235   0.02679   0.01443   3.11828
    D1        2.87443  -0.00151  -0.00797  -0.03519  -0.04377   2.83065
    D2       -0.24797  -0.00010  -0.00308   0.00338   0.00000  -0.24797
    D3       -0.29445  -0.00325  -0.01868  -0.10409  -0.12460  -0.41906
    D4        2.86633  -0.00184  -0.01379  -0.06552  -0.08083   2.78550
    D5       -3.03351  -0.00180  -0.00661  -0.06187  -0.06942  -3.10294
    D6        0.16683  -0.00174  -0.00737  -0.05722  -0.06456   0.10227
    D7        0.13579  -0.00016   0.00447   0.00763   0.00993   0.14572
    D8       -2.94705  -0.00009   0.00370   0.01227   0.01479  -2.93226
    D9        0.16910   0.00371   0.01741   0.12276   0.14012   0.30922
   D10       -2.99192   0.00221   0.01250   0.08329   0.09398  -2.89794
   D11        0.10917  -0.00095  -0.00329  -0.04974  -0.05196   0.05721
   D12       -2.97790  -0.00057  -0.00037  -0.03201  -0.03061  -3.00850
   D13       -0.25365  -0.00121  -0.00865  -0.03566  -0.04293  -0.29658
   D14        2.90231   0.00039   0.00155   0.03454   0.03661   2.93892
   D15        2.83226  -0.00123  -0.01134  -0.05221  -0.06223   2.77002
   D16       -0.29497   0.00036  -0.00114   0.01799   0.01731  -0.27766
   D17        0.12262   0.00098   0.00620   0.05254   0.05784   0.18045
   D18       -3.07508   0.00090   0.00696   0.04806   0.05319  -3.02189
   D19       -3.03250  -0.00051  -0.00357  -0.01349  -0.01626  -3.04876
   D20        0.05299  -0.00058  -0.00281  -0.01797  -0.02091   0.03208
   D21       -3.14024  -0.00277  -0.01440  -0.11805  -0.13263   3.01032
   D22       -0.03798  -0.00073  -0.00473  -0.03909  -0.04504  -0.08301
   D23        0.01577  -0.00115  -0.00423  -0.04749  -0.05184  -0.03607
   D24        3.11803   0.00089   0.00544   0.03147   0.03575  -3.12941
   D25        2.99893   0.00163   0.00743   0.05700   0.06340   3.06233
   D26       -0.09552   0.00047   0.00181   0.01862   0.02027  -0.07525
   D27       -0.08382   0.00171   0.00687   0.06182   0.06867  -0.01515
   D28        3.10491   0.00055   0.00125   0.02345   0.02555   3.13046
   D29        0.04447  -0.00102  -0.00379  -0.04016  -0.04394   0.00053
   D30       -3.07485  -0.00166  -0.00713  -0.06233  -0.06969   3.13865
   D31        3.13923  -0.00002   0.00135  -0.00301  -0.00120   3.13803
   D32        0.01992  -0.00066  -0.00199  -0.02518  -0.02695  -0.00704
   D33        0.02648  -0.00080  -0.00358  -0.02651  -0.03004  -0.00356
   D34       -3.10758  -0.00113  -0.00510  -0.04073  -0.04614   3.12947
   D35       -3.13754  -0.00014  -0.00025  -0.00405  -0.00413   3.14152
   D36        0.01158  -0.00047  -0.00178  -0.01827  -0.02023  -0.00865
   D37       -0.05649   0.00188   0.00758   0.07080   0.07838   0.02189
   D38        3.12434  -0.00004  -0.00153  -0.00728  -0.01016   3.11418
   D39        3.07761   0.00221   0.00910   0.08492   0.09446  -3.11112
   D40       -0.02474   0.00029   0.00000   0.00684   0.00592  -0.01882
         Item               Value     Threshold  Converged?
 Maximum Force            0.009664     0.000450     NO 
 RMS     Force            0.003014     0.000300     NO 
 Maximum Displacement     0.531036     0.001800     NO 
 RMS     Displacement     0.085098     0.001200     NO 
 Predicted change in Energy=-4.815895D-03
 GradGradGradGradGradGradGradGradGradGradGradGradGradGradGradGradGradGrad

                          Input orientation:                          
 ---------------------------------------------------------------------
 Center     Atomic      Atomic             Coordinates (Angstroms)
 Number     Number       Type             X           Y           Z
 ---------------------------------------------------------------------
      1          7           0        2.515706    4.740670   -2.537574
      2          6           0        3.662961    4.385295   -2.411081
      3          6           0        4.997710    4.003225   -1.969758
      4          6           0        6.162391    4.550568   -2.585803
      5          6           0        7.461238    4.517921   -1.990385
      6          6           0        7.580539    3.570940   -0.947614
      7          6           0        6.516275    2.637559   -0.535214
      8          6           0        5.167238    2.946436   -0.977248
      9          6           0        4.077606    2.153560   -0.479162
     10          6           0        4.298352    1.094461    0.397093
     11          6           0        5.625092    0.776264    0.819800
     12          6           0        6.703127    1.525173    0.350771
     13          7           0        9.848561    3.570414    0.474530
     14          6           0        8.816905    3.566966   -0.149234
     15          1           0        6.002191    5.071808   -3.548772
     16          1           0        3.058192    2.400154   -0.809990
     17          1           0        3.447775    0.504437    0.766364
     18          1           0        5.793714   -0.053454    1.520596
     19          1           0        7.724835    1.301275    0.692862
 ---------------------------------------------------------------------
                    Distance matrix (angstroms):
                    1          2          3          4          5
     1  N    0.000000
     2  C    1.207678   0.000000
     3  C    2.650771   1.456812   0.000000
     4  C    3.651955   2.510975   1.426737   0.000000
     5  C    4.980694   3.823805   2.516805   1.429193   0.000000
     6  C    5.435878   4.260555   2.811166   2.377915   1.413639
     7  C    4.943387   3.835995   2.495796   2.826615   2.558561
     8  C    3.561532   2.527655   1.459663   2.480125   2.959468
     9  C    3.656464   2.980752   2.547494   3.811812   4.395789
    10  C    5.008487   4.372545   3.814707   4.931226   5.236791
    11  C    6.054482   5.226247   4.311440   5.111965   5.026785
    12  C    6.018011   5.005071   3.799216   4.250751   3.874569
    13  N    8.013303   6.874041   5.449094   4.890214   3.559900
    14  C    6.840092   5.687597   4.253337   3.735075   2.476285
    15  H    3.645236   2.690286   2.155026   1.106645   2.205488
    16  H    2.959198   2.621073   2.770673   4.172990   5.026439
    17  H    5.452562   5.020310   4.704272   5.914164   6.309960
    18  H    7.085034   6.300848   5.410438   6.180247   6.000425
    19  H    7.028526   5.970298   4.671968   4.873272   4.197155
                    6          7          8          9         10
     6  C    0.000000
     7  C    1.474426   0.000000
     8  C    2.492972   1.452825   0.000000
     9  C    3.807749   2.486866   1.436676   0.000000
    10  C    4.325961   2.858239   2.464465   1.392209   0.000000
    11  C    3.841580   2.468742   2.854585   2.445192   1.428345
    12  C    2.576979   1.434325   2.478423   2.824363   2.443482
    13  N    2.677017   3.604709   4.940829   6.018382   6.077924
    14  C    1.471743   2.511110   3.793512   4.956564   5.179679
    15  H    3.392611   3.907861   3.439053   4.652171   5.855955
    16  H    4.673468   3.477097   2.185057   1.099755   2.167921
    17  H    5.424103   3.957273   3.458337   2.160470   1.099077
    18  H    4.735086   3.462659   3.953611   3.437292   2.194555
    19  H    2.804169   2.180469   3.469456   3.924578   3.445437
                   11         12         13         14         15
    11  C    0.000000
    12  C    1.393919   0.000000
    13  N    5.075842   3.753942   0.000000
    14  C    4.349104   2.981104   1.205574   0.000000
    15  H    6.138266   5.317553   5.765042   4.663049   0.000000
    16  H    3.447058   3.924094   7.009181   5.912768   4.827607
    17  H    2.194870   3.436850   7.103199   6.248596   6.782795
    18  H    1.099082   2.165083   5.537911   5.003544   7.211814
    19  H    2.168102   1.100474   3.115585   2.652376   5.930925
                   16         17         18         19
    16  H    0.000000
    17  H    2.496078   0.000000
    18  H    4.351425   2.526566   0.000000
    19  H    5.024306   4.351275   2.499933   0.000000
 Stoichiometry    C12H5N2(1-)
 Framework group  C1[X(C12H5N2)]
 Deg. of freedom    51
 Full point group                 C1      NOp   1
 Largest Abelian subgroup         C1      NOp   1
 Largest concise Abelian subgroup C1      NOp   1
                         Standard orientation:                         
 ---------------------------------------------------------------------
 Center     Atomic      Atomic             Coordinates (Angstroms)
 Number     Number       Type             X           Y           Z
 ---------------------------------------------------------------------
      1          7           0        4.004741   -0.929375    0.458408
      2          6           0        2.854055   -1.002446    0.099150
      3          6           0        1.408841   -0.953316   -0.077608
      4          6           0        0.670004   -2.120436   -0.434719
      5          6           0       -0.744371   -2.242184   -0.269453
      6          6           0       -1.401805   -1.002135   -0.100821
      7          6           0       -0.739718    0.313989   -0.159027
      8          6           0        0.706933    0.325453   -0.025722
      9          6           0        1.382383    1.589544    0.073683
     10          6           0        0.677525    2.789196    0.026194
     11          6           0       -0.742991    2.782467   -0.122991
     12          6           0       -1.426013    1.571703   -0.225680
     13          7           0       -4.007446   -1.052288    0.511175
     14          6           0       -2.831584   -1.014232    0.247908
     15          1           0        1.265514   -2.978085   -0.801421
     16          1           0        2.476481    1.589865    0.185081
     17          1           0        1.216877    3.743405    0.107162
     18          1           0       -1.296690    3.731544   -0.148534
     19          1           0       -2.522797    1.559296   -0.314854
 ---------------------------------------------------------------------
 Rotational constants (GHZ):      1.0263254      0.6277216      0.3973174
 Standard basis: STO-3G (5D, 7F)
 There are    75 symmetry adapted cartesian basis functions of A   symmetry.
 There are    75 symmetry adapted basis functions of A   symmetry.
    75 basis functions,   225 primitive gaussians,    75 cartesian basis functions
    46 alpha electrons       46 beta electrons
       nuclear repulsion energy       703.3681122051 Hartrees.
 NAtoms=   19 NActive=   19 NUniq=   19 SFac= 1.00D+00 NAtFMM=   60 NAOKFM=F Big=F
 Integral buffers will be    131072 words long.
 Raffenetti 2 integral format.
 Two-electron integral symmetry is turned on.
 One-electron integrals computed using PRISM.
 NBasis=    75 RedAO= T EigKep=  1.79D-01  NBF=    75
 NBsUse=    75 1.00D-06 EigRej= -1.00D+00 NBFU=    75
 Initial guess from the checkpoint file:  "/tmp/bnp.472684.sequoia/Gau-2452.chk"
 B after Tr=     0.000000    0.000000    0.000000
         Rot=    0.999945    0.004123   -0.000117    0.009622 Ang=   1.20 deg.
 ExpMin= 1.69D-01 ExpMax= 9.91D+01 ExpMxC= 9.91D+01 IAcc=1 IRadAn=         1 AccDes= 0.00D+00
 Harris functional with IExCor=  402 and IRadAn=       1 diagonalized for initial guess.
 HarFok:  IExCor=  402 AccDes= 0.00D+00 IRadAn=         1 IDoV= 1 UseB2=F ITyADJ=14
 ICtDFT=  3500011 ScaDFX=  1.000000  1.000000  1.000000  1.000000
 FoFCou: FMM=F IPFlag=           0 FMFlag=      100000 FMFlg1=           0
         NFxFlg=           0 DoJE=T BraDBF=F KetDBF=T FulRan=T
         wScrn=  0.000000 ICntrl=     500 IOpCl=  0 I1Cent=   200000004 NGrid=           0
         NMat0=    1 NMatS0=      1 NMatT0=    0 NMatD0=    1 NMtDS0=    0 NMtDT0=    0
 Petite list used in FoFCou.
 Keep R1 ints in memory in canonical form, NReq=4993994.
 Requested convergence on RMS density matrix=1.00D-08 within 128 cycles.
 Requested convergence on MAX density matrix=1.00D-06.
 Requested convergence on             energy=1.00D-06.
 No special actions if energy rises.
 Integral accuracy reduced to 1.0D-05 until final iterations.
 Initial convergence to 1.0D-05 achieved.  Increase integral accuracy.
 SCF Done:  E(RB3LYP) =  -562.523819666     A.U. after   17 cycles
            NFock= 17  Conv=0.84D-08     -V/T= 2.0142
 Calling FoFJK, ICntrl=      2127 FMM=F ISym2X=0 I1Cent= 0 IOpClX= 0 NMat=1 NMatS=1 NMatT=0.
 ***** Axes restored to original set *****
 -------------------------------------------------------------------
 Center     Atomic                   Forces (Hartrees/Bohr)
 Number     Number              X              Y              Z
 -------------------------------------------------------------------
      1        7           0.010798116   -0.003917479   -0.008641500
      2        6          -0.012231071    0.003458241    0.018612035
      3        6           0.005511890    0.001444423   -0.012070910
      4        6          -0.006543034   -0.001698465    0.000101993
      5        6           0.000302251   -0.002734369    0.003156356
      6        6           0.000954594    0.001492810   -0.001228060
      7        6          -0.002321266    0.001533901   -0.000226018
      8        6           0.000752210   -0.002245299   -0.000412816
      9        6           0.000485657    0.001726346    0.000211866
     10        6           0.001504629   -0.000456787    0.000993582
     11        6          -0.002034744   -0.000039495   -0.000963162
     12        6           0.001273983    0.002813780    0.000438301
     13        7          -0.009765472   -0.000161414   -0.005754441
     14        6           0.009406481   -0.001030564    0.005768103
     15        1           0.001553893    0.000209376    0.001507040
     16        1           0.000991761   -0.000619233    0.000088465
     17        1           0.001194228   -0.000075257   -0.000122992
     18        1          -0.000727536    0.000713300   -0.000603306
     19        1          -0.001106570   -0.000413817   -0.000854537
 -------------------------------------------------------------------
 Cartesian Forces:  Max     0.018612035 RMS     0.004698148

 GradGradGradGradGradGradGradGradGradGradGradGradGradGradGradGradGradGrad
 Berny optimization.
 Using GEDIIS/GDIIS optimizer.
 FormGI is forming the generalized inverse of G from B-inverse, IUseBI=4.
 Internal  Forces:  Max     0.018453266 RMS     0.003050889
 Search for a local minimum.
 Step number   3 out of a maximum of  102
 All quantities printed in internal units (Hartrees-Bohrs-Radians)
 Mixed Optimization -- RFO/linear search
 Update second derivatives using D2CorX and points    2    3
 DE= -7.52D-05 DEPred=-4.82D-03 R= 1.56D-02
 Trust test= 1.56D-02 RLast= 5.08D-01 DXMaxT set to 2.52D-01
 ITU= -1  1  0
 Use linear search instead of GDIIS.
     Eigenvalues ---    0.01433   0.01454   0.01820   0.01864   0.01903
     Eigenvalues ---    0.01983   0.02000   0.02018   0.02028   0.02038
     Eigenvalues ---    0.02077   0.02148   0.02178   0.02197   0.02223
     Eigenvalues ---    0.04801   0.04821   0.06890   0.14861   0.15989
     Eigenvalues ---    0.15999   0.16002   0.16070   0.19818   0.22001
     Eigenvalues ---    0.22540   0.23502   0.24421   0.24783   0.24990
     Eigenvalues ---    0.25083   0.34772   0.34974   0.35002   0.35059
     Eigenvalues ---    0.35440   0.36807   0.38276   0.39572   0.40187
     Eigenvalues ---    0.40745   0.42159   0.42751   0.43393   0.44457
     Eigenvalues ---    0.45148   0.45875   0.46749   0.48561   1.25392
     Eigenvalues ---    1.28447
 RFO step:  Lambda=-4.15498298D-03 EMin= 1.43336539D-02
 Quartic linear search produced a step of -0.49452.
 Iteration  1 RMS(Cart)=  0.06152291 RMS(Int)=  0.01265979
 Iteration  2 RMS(Cart)=  0.02119341 RMS(Int)=  0.00108732
 Iteration  3 RMS(Cart)=  0.00114146 RMS(Int)=  0.00030001
 Iteration  4 RMS(Cart)=  0.00000265 RMS(Int)=  0.00030001
 Iteration  5 RMS(Cart)=  0.00000000 RMS(Int)=  0.00030001
 Variable       Old X    -DE/DX   Delta X   Delta X   Delta X     New X
                                 (Linear)    (Quad)   (Total)
    R1        2.28218  -0.01051  -0.00884   0.00040  -0.00843   2.27374
    R2        2.75298  -0.00175   0.00088  -0.00783  -0.00694   2.74603
    R3        2.69614  -0.00431   0.00133  -0.01736  -0.01593   2.68021
    R4        2.75836  -0.00076  -0.01229   0.01235   0.00003   2.75840
    R5        2.70078   0.00189  -0.00924   0.01651   0.00736   2.70814
    R6        2.09126  -0.00144  -0.00520   0.00252  -0.00268   2.08858
    R7        2.67139  -0.00335  -0.00286  -0.00451  -0.00735   2.66404
    R8        2.78626  -0.00234  -0.01201   0.00458  -0.00748   2.77878
    R9        2.78119  -0.00029  -0.01195   0.01579   0.00384   2.78503
   R10        2.74544  -0.00271   0.00084  -0.01263  -0.01193   2.73351
   R11        2.71048  -0.00221  -0.00241  -0.00472  -0.00720   2.70328
   R12        2.71492  -0.00156  -0.00492   0.00055  -0.00432   2.71061
   R13        2.63089  -0.00044   0.00541  -0.01303  -0.00755   2.62334
   R14        2.07823  -0.00117  -0.00192  -0.00048  -0.00239   2.07584
   R15        2.69918  -0.00345  -0.01061   0.00680  -0.00379   2.69540
   R16        2.07695  -0.00093  -0.00213  -0.00009  -0.00221   2.07474
   R17        2.63413  -0.00039   0.00534  -0.01386  -0.00857   2.62555
   R18        2.07696  -0.00103  -0.00174  -0.00129  -0.00303   2.07394
   R19        2.07959  -0.00121  -0.00293   0.00087  -0.00206   2.07754
   R20        2.27820  -0.01133  -0.00732  -0.00213  -0.00945   2.26875
    A1        2.11357   0.00298  -0.01277   0.02683   0.01419   2.12776
    A2        2.09702  -0.00253   0.00842  -0.01705  -0.00844   2.08859
    A3        2.06751  -0.00038   0.00671  -0.01513  -0.00747   2.06003
    A4        2.15703  -0.00037  -0.00995   0.01242   0.00336   2.16039
    A5        2.02445   0.00174   0.01859  -0.02516  -0.00694   2.01751
    A6        2.09999  -0.00137  -0.00786   0.01034   0.00217   2.10216
    A7        1.98156   0.00091   0.02778  -0.04391  -0.01549   1.96607
    A8        2.17667  -0.00134  -0.01820   0.02592   0.00800   2.18466
    A9        2.06333   0.00228  -0.00569   0.01760   0.01182   2.07515
   A10        2.04085  -0.00093   0.02442  -0.04447  -0.02018   2.02067
   A11        2.03819   0.00131   0.00917  -0.01247  -0.00302   2.03517
   A12        2.17693  -0.00169  -0.00666   0.00362  -0.00262   2.17431
   A13        2.06439   0.00039  -0.00074   0.00372   0.00327   2.06766
   A14        2.05856   0.00011   0.00380  -0.00283   0.00112   2.05968
   A15        2.14982   0.00004  -0.00169   0.00103  -0.00081   2.14902
   A16        2.07309  -0.00012  -0.00198   0.00188  -0.00010   2.07300
   A17        2.11506  -0.00003   0.00228  -0.00457  -0.00199   2.11307
   A18        2.06575   0.00016   0.01058  -0.01794  -0.00734   2.05841
   A19        2.10237  -0.00013  -0.01332   0.02262   0.00931   2.11168
   A20        2.09788  -0.00014  -0.00139   0.00156   0.00037   2.09826
   A21        2.09110   0.00082  -0.00153   0.00740   0.00583   2.09693
   A22        2.09419  -0.00068   0.00281  -0.00901  -0.00624   2.08796
   A23        2.09336   0.00014  -0.00019   0.00058   0.00042   2.09378
   A24        2.09368  -0.00067   0.00259  -0.00803  -0.00543   2.08825
   A25        2.09612   0.00052  -0.00239   0.00733   0.00493   2.10104
   A26        2.12207  -0.00024   0.00062  -0.00396  -0.00297   2.11910
   A27        2.06094   0.00037   0.01031  -0.01612  -0.00538   2.05556
   A28        2.09916  -0.00011  -0.01075   0.01711   0.00685   2.10601
   A29        3.03616   0.01261   0.09463   0.10309   0.19772   3.23388
   A30        3.16108  -0.00040   0.00497  -0.02374  -0.01877   3.14231
   A31        3.31752  -0.01845  -0.12594  -0.16369  -0.28963   3.02789
   A32        3.11828   0.00010  -0.00714   0.03290   0.02576   3.14404
    D1        2.83065   0.00017   0.02165  -0.03901  -0.01712   2.81354
    D2       -0.24797   0.00027   0.00000   0.00459   0.00473  -0.24324
    D3       -0.41906   0.00065   0.06162  -0.09681  -0.03458  -0.45364
    D4        2.78550   0.00075   0.03997  -0.05322  -0.01274   2.77277
    D5       -3.10294   0.00086   0.03433  -0.05435  -0.01967  -3.12260
    D6        0.10227   0.00045   0.03193  -0.05584  -0.02389   0.07838
    D7        0.14572   0.00003  -0.00491   0.00008  -0.00405   0.14166
    D8       -2.93226  -0.00038  -0.00731  -0.00141  -0.00828  -2.94054
    D9        0.30922  -0.00021  -0.06929   0.12033   0.05106   0.36028
   D10       -2.89794  -0.00020  -0.04647   0.07372   0.02790  -2.87005
   D11        0.05721  -0.00037   0.02569  -0.05731  -0.03198   0.02523
   D12       -3.00850  -0.00032   0.01513  -0.03990  -0.02532  -3.03383
   D13       -0.29658   0.00063   0.02123  -0.02002   0.00079  -0.29579
   D14        2.93892   0.00046  -0.01811   0.04524   0.02700   2.96591
   D15        2.77002   0.00072   0.03077  -0.03481  -0.00446   2.76557
   D16       -0.27766   0.00055  -0.00856   0.03045   0.02175  -0.25592
   D17        0.18045  -0.00012  -0.02860   0.04593   0.01773   0.19818
   D18       -3.02189   0.00028  -0.02630   0.04733   0.02174  -3.00015
   D19       -3.04876  -0.00009   0.00804  -0.01490  -0.00711  -3.05587
   D20        0.03208   0.00031   0.01034  -0.01350  -0.00310   0.02898
[...]
 ! D15   D(14,6,7,8)           161.4456         -DE/DX =    0.0                 !
 ! D16   D(14,6,7,12)          -13.3782         -DE/DX =    0.0                 !
 ! D17   D(6,7,8,3)              9.4734         -DE/DX =    0.0                 !
 ! D18   D(6,7,8,9)           -173.1277         -DE/DX =    0.0                 !
 ! D19   D(12,7,8,3)          -175.3832         -DE/DX =    0.0                 !
 ! D20   D(12,7,8,9)             2.0157         -DE/DX =    0.0                 !
 ! D21   D(6,7,12,11)          172.8652         -DE/DX =    0.0                 !
 ! D22   D(6,7,12,19)           -5.5688         -DE/DX =    0.0                 !
 ! D23   D(8,7,12,11)           -1.9038         -DE/DX =    0.0                 !
 ! D24   D(8,7,12,19)          179.6622         -DE/DX =    0.0                 !
 ! D25   D(3,8,9,10)           176.0839         -DE/DX =    0.0                 !
 ! D26   D(3,8,9,16)            -3.0259         -DE/DX =    0.0                 !
 ! D27   D(7,8,9,10)            -1.1764         -DE/DX =    0.0                 !
 ! D28   D(7,8,9,16)           179.7137         -DE/DX =    0.0                 !
 ! D29   D(8,9,10,11)            0.1331         -DE/DX =    0.0                 !
 ! D30   D(8,9,10,17)         -179.6816         -DE/DX =    0.0                 !
 ! D31   D(16,9,10,11)         179.226          -DE/DX =    0.0                 !
 ! D32   D(16,9,10,17)          -0.5887         -DE/DX =    0.0                 !
 ! D33   D(9,10,11,12)           0.0344         -DE/DX =    0.0                 !
 ! D34   D(9,10,11,18)         179.4789         -DE/DX =    0.0                 !
 ! D35   D(17,10,11,12)        179.8498         -DE/DX =    0.0                 !
 ! D36   D(17,10,11,18)         -0.7058         -DE/DX =    0.0                 !
 ! D37   D(10,11,12,7)           0.8806         -DE/DX =    0.0                 !
 ! D38   D(10,11,12,19)        179.2844         -DE/DX =    0.0                 !
 ! D39   D(18,11,12,7)        -178.5607         -DE/DX =    0.0                 !
 ! D40   D(18,11,12,19)         -0.1569         -DE/DX =    0.0                 !
 --------------------------------------------------------------------------------
 GradGradGradGradGradGradGradGradGradGradGradGradGradGradGradGradGradGrad

                          Input orientation:                          
 ---------------------------------------------------------------------
 Center     Atomic      Atomic             Coordinates (Angstroms)
 Number     Number       Type             X           Y           Z
 ---------------------------------------------------------------------
      1          7           0        2.552922    4.682111   -2.786475
      2          6           0        3.641325    4.370128   -2.382979
      3          6           0        4.982022    4.009743   -1.948993
      4          6           0        6.130694    4.596238   -2.539292
      5          6           0        7.443507    4.548160   -1.957866
      6          6           0        7.575657    3.572155   -0.947858
      7          6           0        6.511202    2.645554   -0.529325
      8          6           0        5.163538    2.946546   -0.964501
      9          6           0        4.079210    2.156706   -0.457470
     10          6           0        4.306963    1.099756    0.419723
     11          6           0        5.633877    0.786573    0.832393
     12          6           0        6.707406    1.538641    0.359023
     13          7           0        9.871906    3.466664    0.415190
     14          6           0        8.831305    3.514880   -0.181405
     15          1           0        5.969154    5.168558   -3.470395
     16          1           0        3.059025    2.394049   -0.788477
     17          1           0        3.464911    0.502752    0.793505
     18          1           0        5.804692   -0.042909    1.531022
     19          1           0        7.731094    1.307365    0.684360
 ---------------------------------------------------------------------
                    Distance matrix (angstroms):
                    1          2          3          4          5
     1  N    0.000000
     2  C    1.201984   0.000000
     3  C    2.655933   1.454541   0.000000
     4  C    3.587329   2.504499   1.418406   0.000000
     5  C    4.962093   3.830014   2.519699   1.436610   0.000000
     6  C    5.462636   4.263251   2.814374   2.381035   1.410732
     7  C    4.991020   3.827060   2.492963   2.826645   2.555354
     8  C    3.625892   2.521071   1.460329   2.477264   2.958074
     9  C    3.759188   2.966238   2.544299   3.807083   4.391895
    10  C    5.117582   4.358159   3.812420   4.930228   5.232813
    11  C    6.145219   5.210639   4.306954   5.111618   5.020941
    12  C    6.085664   4.993671   3.796081   4.252261   3.868724
    13  N    8.080563   6.889567   5.458504   4.899139   3.563446
    14  C    6.896877   5.702128   4.264532   3.744631   2.479811
    15  H    3.517815   2.690493   2.152195   1.104807   2.201444
    16  H    3.079507   2.605072   2.766800   4.165350   5.023082
    17  H    5.578085   5.007771   4.703393   5.913591   6.305918
    18  H    7.179179   6.282870   5.404746   6.180244   5.994662
    19  H    7.088658   5.959471   4.668489   4.875438   4.191279
                    6          7          8          9         10
     6  C    0.000000
     7  C    1.472014   0.000000
     8  C    2.491984   1.447817   0.000000
     9  C    3.803830   2.481677   1.434118   0.000000
    10  C    4.320578   2.854619   2.461794   1.392294   0.000000
    11  C    3.833963   2.465722   2.848778   2.440902   1.424458
    12  C    2.568458   1.432799   2.473346   2.820652   2.440989
    13  N    2.672412   3.586176   4.933842   6.002737   6.047385
    14  C    1.472203   2.501930   3.793251   4.950076   5.163705
    15  H    3.390066   3.912704   3.444685   4.660564   5.869501
    16  H    4.670472   3.471015   2.182937   1.098488   2.166170
    17  H    5.417732   3.952388   3.456595   2.162837   1.097806
    18  H    4.727563   3.460060   3.946588   3.430699   2.187204
    19  H    2.795991   2.179889   3.463813   3.919364   3.440611
                   11         12         13         14         15
    11  C    0.000000
    12  C    1.393610   0.000000
    13  N    5.031683   3.706007   0.000000
    14  C    4.323771   2.951022   1.200459   0.000000
    15  H    6.150462   5.327828   5.764172   4.663047   0.000000
    16  H    3.441085   3.919077   7.001047   5.911346   4.833160
    17  H    2.187803   3.431561   7.069475   6.230694   6.798663
    18  H    1.097861   2.165588   5.486749   4.975003   7.224998
    19  H    2.165977   1.098758   3.052556   2.614027   5.939295
                   16         17         18         19
    16  H    0.000000
    17  H    2.498883   0.000000
    18  H    4.342526   2.513216   0.000000
    19  H    5.017804   4.342768   2.500220   0.000000
 Stoichiometry    C12H5N2(1-)
 Framework group  C1[X(C12H5N2)]
 Deg. of freedom    51
 Full point group                 C1      NOp   1
 Largest Abelian subgroup         C1      NOp   1
 Largest concise Abelian subgroup C1      NOp   1
                         Standard orientation:                         
 ---------------------------------------------------------------------
 Center     Atomic      Atomic             Coordinates (Angstroms)
 Number     Number       Type             X           Y           Z
 ---------------------------------------------------------------------
      1          7           0        4.083528   -0.899743    0.260947
      2          6           0        2.887448   -0.874961    0.144565
      3          6           0        1.443679   -0.895839   -0.030887
      4          6           0        0.755343   -2.097838   -0.336284
      5          6           0       -0.664834   -2.265121   -0.198588
      6          6           0       -1.366140   -1.046288   -0.085526
      7          6           0       -0.747396    0.288238   -0.140492
      8          6           0        0.692190    0.355956   -0.002001
      9          6           0        1.318593    1.642029    0.099634
     10          6           0        0.569554    2.814287    0.042743
     11          6           0       -0.844649    2.751921   -0.116065
     12          6           0       -1.481732    1.516342   -0.214150
     13          7           0       -3.992266   -1.139499    0.400842
     14          6           0       -2.810522   -1.086392    0.196486
     15          1           0        1.377347   -2.959240   -0.639098
     16          1           0        2.410737    1.685304    0.209283
     17          1           0        1.066973    3.790110    0.117054
     18          1           0       -1.429448    3.680391   -0.151453
     19          1           0       -2.573645    1.464128   -0.324924
 ---------------------------------------------------------------------
 Rotational constants (GHZ):      1.0366637      0.6251219      0.3945495

 **********************************************************************

            Population analysis using the SCF density.

 **********************************************************************

 Orbital symmetries:
       Occupied  (A) (A) (A) (A) (A) (A) (A) (A) (A) (A) (A) (A)
                 (A) (A) (A) (A) (A) (A) (A) (A) (A) (A) (A) (A)
                 (A) (A) (A) (A) (A) (A) (A) (A) (A) (A) (A) (A)
                 (A) (A) (A) (A) (A) (A) (A) (A) (A) (A)
       Virtual   (A) (A) (A) (A) (A) (A) (A) (A) (A) (A) (A) (A)
                 (A) (A) (A) (A) (A) (A) (A) (A) (A) (A) (A) (A)
                 (A) (A) (A) (A) (A)
 The electronic state is 1-A.
 Alpha  occ. eigenvalues --  -13.96211 -13.94078  -9.87436  -9.87109  -9.87093
 Alpha  occ. eigenvalues --   -9.87000  -9.86951  -9.86805  -9.86793  -9.86554
 Alpha  occ. eigenvalues --   -9.84979  -9.84172  -9.83205  -9.71244  -0.70393
 Alpha  occ. eigenvalues --   -0.68612  -0.67101  -0.61630  -0.58087  -0.53919
 Alpha  occ. eigenvalues --   -0.52523  -0.43893  -0.42618  -0.41169  -0.34227
 Alpha  occ. eigenvalues --   -0.32393  -0.29817  -0.28156  -0.24766  -0.24219
 Alpha  occ. eigenvalues --   -0.21682  -0.20044  -0.18812  -0.16425  -0.15792
 Alpha  occ. eigenvalues --   -0.15220  -0.13763  -0.13124  -0.11600  -0.11162
 Alpha  occ. eigenvalues --   -0.09536  -0.08684  -0.06949  -0.02535   0.00634
 Alpha  occ. eigenvalues --    0.08365
 Alpha virt. eigenvalues --    0.17371   0.22799   0.23543   0.27717   0.29816
 Alpha virt. eigenvalues --    0.30162   0.35255   0.37373   0.44582   0.47059
 Alpha virt. eigenvalues --    0.47648   0.49566   0.52934   0.56553   0.57223
 Alpha virt. eigenvalues --    0.57817   0.59179   0.63395   0.68268   0.69573
 Alpha virt. eigenvalues --    0.71233   0.74614   0.77519   0.82174   0.85111
 Alpha virt. eigenvalues --    0.91427   0.93810   1.08673   1.10322
          Condensed to atoms (all electrons):
               1          2          3          4          5          6
     1  N    6.618399   0.654308  -0.011192  -0.000153  -0.000001   0.000000
     2  C    0.654308   4.948803   0.423018  -0.027163   0.000732   0.000046
     3  C   -0.011192   0.423018   4.827853   0.481342  -0.020052  -0.011317
     4  C   -0.000153  -0.027163   0.481342   4.894341   0.444130  -0.030969
     5  C   -0.000001   0.000732  -0.020052   0.444130   5.359465   0.476591
     6  C    0.000000   0.000046  -0.011317  -0.030969   0.476591   4.863267
     7  C   -0.000001   0.000731  -0.028002  -0.011655  -0.020851   0.431904
     8  C    0.000024  -0.029023   0.450631  -0.029594  -0.007292  -0.029517
     9  C   -0.000115  -0.004255  -0.026738   0.000624   0.000024   0.000757
    10  C    0.000000   0.000016   0.000740  -0.000007   0.000000   0.000027
    11  C    0.000000   0.000000   0.000029  -0.000001  -0.000006   0.000683
    12  C    0.000000  -0.000005   0.000794   0.000054   0.000584  -0.024522
    13  N    0.000000   0.000000   0.000000  -0.000002  -0.000031  -0.010902
    14  C    0.000000   0.000000   0.000014   0.001380  -0.034303   0.407686
    15  H    0.000098  -0.003420  -0.033082   0.381694  -0.031197   0.001978
    16  H   -0.000102   0.001660  -0.003512   0.000022   0.000000  -0.000016
    17  H    0.000000   0.000000  -0.000015   0.000000   0.000000   0.000000
    18  H    0.000000   0.000000   0.000001   0.000000   0.000000  -0.000014
    19  H    0.000000   0.000000  -0.000016   0.000001   0.000019  -0.003290
               7          8          9         10         11         12
     1  N   -0.000001   0.000024  -0.000115   0.000000   0.000000   0.000000
     2  C    0.000731  -0.029023  -0.004255   0.000016   0.000000  -0.000005
     3  C   -0.028002   0.450631  -0.026738   0.000740   0.000029   0.000794
     4  C   -0.011655  -0.029594   0.000624  -0.000007  -0.000001   0.000054
     5  C   -0.020851  -0.007292   0.000024   0.000000  -0.000006   0.000584
     6  C    0.431904  -0.029517   0.000757   0.000027   0.000683  -0.024522
     7  C    4.821425   0.466185  -0.026030  -0.009537  -0.027025   0.474315
     8  C    0.466185   4.801624   0.474844  -0.027567  -0.009610  -0.027721
     9  C   -0.026030   0.474844   4.832690   0.521087  -0.029526  -0.010360
    10  C   -0.009537  -0.027567   0.521087   4.827456   0.480810  -0.029474
    11  C   -0.027025  -0.009610  -0.029526   0.480810   4.830303   0.518758
    12  C    0.474315  -0.027721  -0.010360  -0.029474   0.518758   4.833816
    13  N    0.000065  -0.000001   0.000000   0.000000   0.000001  -0.000155
    14  C   -0.035527   0.000728  -0.000007   0.000000   0.000012  -0.004101
    15  H    0.000010   0.001222  -0.000016   0.000000   0.000000   0.000001
    16  H    0.001243  -0.025352   0.386180  -0.025456   0.001389   0.000027
    17  H    0.000031   0.001360  -0.025821   0.387477  -0.025299   0.001353
    18  H    0.001343   0.000029   0.001354  -0.025453   0.387272  -0.025613
    19  H   -0.025715   0.001283   0.000029   0.001390  -0.025633   0.386122
              13         14         15         16         17         18
     1  N    0.000000   0.000000   0.000098  -0.000102   0.000000   0.000000
     2  C    0.000000   0.000000  -0.003420   0.001660   0.000000   0.000000
     3  C    0.000000   0.000014  -0.033082  -0.003512  -0.000015   0.000001
     4  C   -0.000002   0.001380   0.381694   0.000022   0.000000   0.000000
     5  C   -0.000031  -0.034303  -0.031197   0.000000   0.000000   0.000000
     6  C   -0.010902   0.407686   0.001978  -0.000016   0.000000  -0.000014
     7  C    0.000065  -0.035527   0.000010   0.001243   0.000031   0.001343
     8  C   -0.000001   0.000728   0.001222  -0.025352   0.001360   0.000029
     9  C    0.000000  -0.000007  -0.000016   0.386180  -0.025821   0.001354
    10  C    0.000000   0.000000   0.000000  -0.025456   0.387477  -0.025453
    11  C    0.000001   0.000012   0.000000   0.001389  -0.025299   0.387272
    12  C   -0.000155  -0.004101   0.000001   0.000027   0.001353  -0.025613
    13  N    6.627562   0.658252   0.000000   0.000000   0.000000   0.000000
    14  C    0.658252   4.965103  -0.000011   0.000000   0.000000   0.000000
    15  H    0.000000  -0.000011   0.643571  -0.000001   0.000000   0.000000
    16  H    0.000000   0.000000  -0.000001   0.602634  -0.003747  -0.000034
    17  H    0.000000   0.000000   0.000000  -0.003747   0.616376  -0.003312
    18  H    0.000000   0.000000   0.000000  -0.000034  -0.003312   0.616640
    19  H   -0.000088   0.001680   0.000000   0.000002  -0.000033  -0.003711
              19
     1  N    0.000000
     2  C    0.000000
     3  C   -0.000016
     4  C    0.000001
     5  C    0.000019
     6  C   -0.003290
     7  C   -0.025715
     8  C    0.001283
     9  C    0.000029
    10  C    0.001390
    11  C   -0.025633
    12  C    0.386122
    13  N   -0.000088
    14  C    0.001680
    15  H    0.000000
    16  H    0.000002
    17  H   -0.000033
    18  H   -0.003711
    19  H    0.600814
 Mulliken charges:
               1
     1  N   -0.261266
     2  C    0.034551
     3  C   -0.050496
     4  C   -0.104044
     5  C   -0.167811
     6  C   -0.072392
     7  C   -0.012907
     8  C   -0.012252
     9  C   -0.094722
    10  C   -0.101512
    11  C   -0.102159
    12  C   -0.093875
    13  N   -0.274700
    14  C    0.039093
    15  H    0.039155
    16  H    0.065063
    17  H    0.051630
    18  H    0.051498
    19  H    0.067146
 Sum of Mulliken charges =  -1.00000
 Mulliken charges with hydrogens summed into heavy atoms:
               1
     1  N   -0.261266
     2  C    0.034551
     3  C   -0.050496
     4  C   -0.064889
     5  C   -0.167811
     6  C   -0.072392
     7  C   -0.012907
     8  C   -0.012252
     9  C   -0.029659
    10  C   -0.049881
    11  C   -0.050661
    12  C   -0.026730
    13  N   -0.274700
    14  C    0.039093
 Electronic spatial extent (au):  <R**2>=           2619.2124
 Charge=             -1.0000 electrons
 Dipole moment (field-independent basis, Debye):
    X=              1.2172    Y=              5.0755    Z=             -0.6185  Tot=              5.2560
 Quadrupole moment (field-independent basis, Debye-Ang):
   XX=           -122.1229   YY=            -88.7892   ZZ=            -74.7863
   XY=             -4.8457   XZ=              1.1262   YZ=              0.5381
 Traceless Quadrupole moment (field-independent basis, Debye-Ang):
   XX=            -26.8901   YY=              6.4436   ZZ=             20.4465
   XY=             -4.8457   XZ=              1.1262   YZ=              0.5381
 Octapole moment (field-independent basis, Debye-Ang**2):
  XXX=             -2.6942  YYY=             30.5112  ZZZ=              1.7452  XYY=             14.4459
  XXY=             56.4800  XXZ=            -19.4503  XZZ=              0.8526  YZZ=             -2.3677
  YYZ=              1.2011  XYZ=             -0.4527
 Hexadecapole moment (field-independent basis, Debye-Ang**3):
 XXXX=          -2910.0054 YYYY=          -1390.7312 ZZZZ=            -77.7543 XXXY=            -28.4167
 XXXZ=             19.6499 YYYX=            -37.4125 YYYZ=             -2.2985 ZZZX=             -0.9211
 ZZZY=             -1.4641 XXYY=           -588.7439 XXZZ=           -341.3885 YYZZ=           -240.3954
 XXYZ=             20.4114 YYXZ=              0.6638 ZZXY=             -0.4951
 N-N= 7.038992151229D+02 E-N=-2.730128053646D+03  KE= 5.546802646614D+02
 1\1\GINC-N054\FOpt\RB3LYP\STO-3G\C12H5N2(1-)\R2532\15-Jun-2021\0\\#N B
 3LYP/STO-3G OPT\\1Naph\\-1,1\N,2.5529217267,4.682111224,-2.7864752888\
 C,3.6413250453,4.3701284979,-2.3829788672\C,4.9820218187,4.0097431308,
 -1.9489931615\C,6.1306937607,4.5962380714,-2.539291667\C,7.4435074289,
 4.5481604001,-1.957865609\C,7.5756574031,3.5721548033,-0.9478579677\C,
 6.5112019926,2.6455537563,-0.5293249597\C,5.1635378897,2.9465461683,-0
 .9645011104\C,4.0792100642,2.1567057328,-0.4574704813\C,4.3069632677,1
 .0997558557,0.4197232932\C,5.6338769774,0.7865727284,0.8323934077\C,6.
 7074056586,1.5386406795,0.3590226684\N,9.8719058569,3.466664235,0.4151
 899827\C,8.8313048923,3.514879864,-0.1814054458\H,5.9691543792,5.16855
 77142,-3.4703946524\H,3.0590247485,2.3940492251,-0.788476837\H,3.46491
 10007,0.5027518346,0.7935048142\H,5.8046923126,-0.042909358,1.53102153
 05\H,7.7310937763,1.3073654364,0.6843603512\\Version=ES64L-G09RevD.01\
 State=1-A\HF=-562.5269537\RMSD=4.580e-09\RMSF=3.613e-05\Dipole=-1.1584
 952,-1.5703154,0.6841231\Quadrupole=-16.925831,8.9123991,8.0134319,0.0
 310376,-9.9737671,5.1145678\PG=C01 [X(C12H5N2)]\\@


      LET US REMEMBER, PLEASE, THAT THE SEARCH FOR THE CONSTITUTION
      OF THE WORLD IS ONE OF THE GREATEST AND NOBLEST PROBLEMS PRESENTED 
      BY NATURE.

                                                  -- GALILEO
 Job cpu time:       0 days  0 hours  4 minutes 10.5 seconds.
 File lengths (MBytes):  RWF=      5 Int=      0 D2E=      0 Chk=      2 Scr=      1
 Normal termination of Gaussian 09 at Tue Jun 15 11:17:56 2021.
