 Entering Gaussian System, Link 0=/usr/local/apps//g09/g09
 Input=37.com
 Output=37.out
 Initial command:
 /usr/local/apps//g09/l1.exe "/tmp/bnp.472618.sequoia/Gau-14655.inp" -scrdir="/tmp/bnp.472618.sequoia/"
 Entering Link 1 = /usr/local/apps//g09/l1.exe PID=     14656.
  
 Copyright (c) 1988,1990,1992,1993,1995,1998,2003,2009,2013,
            Gaussian, Inc.  All Rights Reserved.
  
 This is part of the Gaussian(R) 09 program.  It is based on
 the Gaussian(R) 03 system (copyright 2003, Gaussian, Inc.),
 the Gaussian(R) 98 system (copyright 1998, Gaussian, Inc.),
 the Gaussian(R) 94 system (copyright 1995, Gaussian, Inc.),
 the Gaussian 92(TM) system (copyright 1992, Gaussian, Inc.),
 the Gaussian 90(TM) system (copyright 1990, Gaussian, Inc.),
 the Gaussian 88(TM) system (copyright 1988, Gaussian, Inc.),
 the Gaussian 86(TM) system (copyright 1986, Carnegie Mellon
 University), and the Gaussian 82(TM) system (copyright 1983,
 Carnegie Mellon University). Gaussian is a federally registered
 trademark of Gaussian, Inc.
  
 This software contains proprietary and confidential information,
 including trade secrets, belonging to Gaussian, Inc.
  
 This software is provided under written license and may be
 used, copied, transmitted, or stored only in accord with that
 written license.
  
 The following legend is applicable only to US Government
 contracts under FAR:
  
                    RESTRICTED RIGHTS LEGEND
  
 Use, reproduction and disclosure by the US Government is
 subject to restrictions as set forth in subparagraphs (a)
 and (c) of the Commercial Computer Software - Restricted
 Rights clause in FAR 52.227-19.
  
 Gaussian, Inc.
 340 Quinnipiac St., Bldg. 40, Wallingford CT 06492
  
  
 ---------------------------------------------------------------
 Warning -- This program may not be used in any manner that
 competes with the business of Gaussian, Inc. or will provide
 assistance to any competitor of Gaussian, Inc.  The licensee
 of this program is prohibited from giving any competitor of
 Gaussian, Inc. access to this program.  By using this program,
 the user acknowledges that Gaussian, Inc. is engaged in the
 business of creating and licensing software in the field of
 computational chemistry and represents and warrants to the
 licensee that it is not a competitor of Gaussian, Inc. and that
 it will not use this program in any manner prohibited above.
 ---------------------------------------------------------------
  

 Cite this work as:
 Gaussian 09, Revision D.01,
 M. J. Frisch, G. W. Trucks, H. B. Schlegel, G. E. Scuseria, 
 M. A. Robb, J. R. Cheeseman, G. Scalmani, V. Barone, B. Mennucci, 
 G. A. Petersson, H. Nakatsuji, M. Caricato, X. Li, H. P. Hratchian, 
 A. F. Izmaylov, J. Bloino, G. Zheng, J. L. Sonnenberg, M. Hada, 
 M. Ehara, K. Toyota, R. Fukuda, J. Hasegawa, M. Ishida, T. Nakajima, 
 Y. Honda, O. Kitao, H. Nakai, T. Vreven, J. A. Montgomery, Jr., 
 J. E. Peralta, F. Ogliaro, M. Bearpark, J. J. Heyd, E. Brothers, 
 K. N. Kudin, V. N. Staroverov, T. Keith, R. Kobayashi, J. Normand, 
 K. Raghavachari, A. Rendell, J. C. Burant, S. S. Iyengar, J. Tomasi, 
 M. Cossi, N. Rega, J. M. Millam, M. Klene, J. E. Knox, J. B. Cross, 
 V. Bakken, C. Adamo, J. Jaramillo, R. Gomperts, R. E. Stratmann, 
 O. Yazyev, A. J. Austin, R. Cammi, C. Pomelli, J. W. Ochterski, 
 R. L. Martin, K. Morokuma, V. G. Zakrzewski, G. A. Voth, 
 P. Salvador, J. J. Dannenberg, S. Dapprich, A. D. Daniels, 
 O. Farkas, J. B. Foresman, J. V. Ortiz, J. Cioslowski, 
 and D. J. Fox, Gaussian, Inc., Wallingford CT, 2013.
 
 ******************************************
 Gaussian 09:  ES64L-G09RevD.01 24-Apr-2013
                15-Jun-2021 
 ******************************************
 -------------------
 #N B3LYP/STO-3G OPT
 -------------------
 1/14=-1,18=20,19=15,26=3,38=1/1,3;
 2/9=110,12=2,17=6,18=5,40=1/2;
 3/6=3,11=2,16=1,25=1,30=1,71=1,74=-5/1,2,3;
 4//1;
 5/5=2,38=5/2;
 6/7=2,8=2,9=2,10=2,28=1/1;
 7//1,2,3,16;
 1/14=-1,18=20,19=15,26=3/3(2);
 2/9=110/2;
 99//99;
 2/9=110/2;
 3/6=3,11=2,16=1,25=1,30=1,71=1,74=-5/1,2,3;
 4/5=5,16=3,69=1/1;
 5/5=2,38=5/2;
 7//1,2,3,16;
 1/14=-1,18=20,19=15,26=3/3(-5);
 2/9=110/2;
 6/7=2,8=2,9=2,10=2,19=2,28=1/1;
 99/9=1/99;
 -----
 2Naph
 -----
 Symbolic Z-matrix:
 Charge = -1 Multiplicity = 1
 N                     3.58045   1.96881   0.58807 
 C                     4.26961   1.15435   0.12947 
 C                     5.25604   0.00151  -1.81829 
 C                     5.16358   0.19327  -0.43674 
 C                     6.01581  -0.50102   0.41052 
 C                     7.07107  -1.23248  -0.12154 
 C                     7.33953  -1.21232  -1.49764 
 C                     6.33396  -0.72531  -2.36822 
 C                     6.46565  -0.92102  -3.75291 
 C                     7.64237  -1.44274  -4.29148 
 C                     8.71929  -1.7244   -3.45625 
 C                     8.5699   -1.62555  -2.06789 
 N                     10.68117  -1.82657  -0.56765 
 C                     9.73786  -1.77299  -1.23989 
 H                     4.53914   0.49098  -2.47838 
 H                     7.68192  -1.82403   0.55759 
 H                     5.65336  -0.6576   -4.42942 
 H                     7.73901  -1.57949  -5.36657 
 H                     9.67792  -2.00545  -3.89025 
 

 GradGradGradGradGradGradGradGradGradGradGradGradGradGradGradGradGradGrad
 Berny optimization.
 Initialization pass.
                           ----------------------------
                           !    Initial Parameters    !
                           ! (Angstroms and Degrees)  !
 --------------------------                            --------------------------
 ! Name  Definition              Value          Derivative Info.                !
 --------------------------------------------------------------------------------
 ! R1    R(1,2)                  1.1613         estimate D2E/DX2                !
 ! R2    R(2,4)                  1.4295         estimate D2E/DX2                !
 ! R3    R(3,4)                  1.3979         estimate D2E/DX2                !
 ! R4    R(3,8)                  1.4116         estimate D2E/DX2                !
 ! R5    R(3,15)                 1.0905         estimate D2E/DX2                !
 ! R6    R(4,5)                  1.3879         estimate D2E/DX2                !
 ! R7    R(5,6)                  1.3899         estimate D2E/DX2                !
 ! R8    R(6,7)                  1.4022         estimate D2E/DX2                !
 ! R9    R(6,16)                 1.0882         estimate D2E/DX2                !
 ! R10   R(7,8)                  1.4164         estimate D2E/DX2                !
 ! R11   R(7,12)                 1.4177         estimate D2E/DX2                !
 ! R12   R(8,9)                  1.4046         estimate D2E/DX2                !
 ! R13   R(9,10)                 1.3953         estimate D2E/DX2                !
 ! R14   R(9,17)                 1.0894         estimate D2E/DX2                !
 ! R15   R(10,11)                1.3917         estimate D2E/DX2                !
 ! R16   R(10,18)                1.0881         estimate D2E/DX2                !
 ! R17   R(11,12)                1.3999         estimate D2E/DX2                !
 ! R18   R(11,19)                1.0892         estimate D2E/DX2                !
 ! R19   R(12,14)                1.4393         estimate D2E/DX2                !
 ! R20   R(13,14)                1.1596         estimate D2E/DX2                !
 ! A1    A(4,3,8)              120.4096         estimate D2E/DX2                !
 ! A2    A(4,3,15)             119.5498         estimate D2E/DX2                !
 ! A3    A(8,3,15)             119.8207         estimate D2E/DX2                !
 ! A4    A(2,4,3)              121.6727         estimate D2E/DX2                !
 ! A5    A(2,4,5)              118.5904         estimate D2E/DX2                !
 ! A6    A(3,4,5)              119.6112         estimate D2E/DX2                !
 ! A7    A(4,5,6)              119.7228         estimate D2E/DX2                !
 ! A8    A(5,6,7)              120.8969         estimate D2E/DX2                !
 ! A9    A(5,6,16)             118.2527         estimate D2E/DX2                !
 ! A10   A(7,6,16)             120.8501         estimate D2E/DX2                !
 ! A11   A(6,7,8)              118.1783         estimate D2E/DX2                !
 ! A12   A(6,7,12)             123.8305         estimate D2E/DX2                !
 ! A13   A(8,7,12)             117.978          estimate D2E/DX2                !
 ! A14   A(3,8,7)              118.6662         estimate D2E/DX2                !
 ! A15   A(3,8,9)              121.8286         estimate D2E/DX2                !
 ! A16   A(7,8,9)              119.4351         estimate D2E/DX2                !
 ! A17   A(8,9,10)             120.7747         estimate D2E/DX2                !
 ! A18   A(8,9,17)             120.568          estimate D2E/DX2                !
 ! A19   A(10,9,17)            118.6539         estimate D2E/DX2                !
 ! A20   A(9,10,11)            119.7771         estimate D2E/DX2                !
 ! A21   A(9,10,18)            120.2174         estimate D2E/DX2                !
 ! A22   A(11,10,18)           119.924          estimate D2E/DX2                !
 ! A23   A(10,11,12)           119.8918         estimate D2E/DX2                !
 ! A24   A(10,11,19)           119.6148         estimate D2E/DX2                !
 ! A25   A(12,11,19)           120.4865         estimate D2E/DX2                !
 ! A26   A(7,12,11)            120.8067         estimate D2E/DX2                !
 ! A27   A(7,12,14)            120.1817         estimate D2E/DX2                !
 ! A28   A(11,12,14)           118.4723         estimate D2E/DX2                !
 ! A29   L(1,2,4,15,-1)        180.2019         estimate D2E/DX2                !
 ! A30   L(12,14,13,16,-1)     179.9785         estimate D2E/DX2                !
 ! A31   L(1,2,4,15,-2)        176.8872         estimate D2E/DX2                !
 ! A32   L(12,14,13,16,-2)     183.3236         estimate D2E/DX2                !
 ! D1    D(8,3,4,2)            166.0247         estimate D2E/DX2                !
 ! D2    D(8,3,4,5)             -9.8408         estimate D2E/DX2                !
 ! D3    D(15,3,4,2)            -8.5782         estimate D2E/DX2                !
 ! D4    D(15,3,4,5)           175.5562         estimate D2E/DX2                !
 ! D5    D(4,3,8,7)             -2.2152         estimate D2E/DX2                !
 ! D6    D(4,3,8,9)           -179.1533         estimate D2E/DX2                !
 ! D7    D(15,3,8,7)           172.3731         estimate D2E/DX2                !
 ! D8    D(15,3,8,9)            -4.565          estimate D2E/DX2                !
 ! D9    D(2,4,5,6)           -167.0084         estimate D2E/DX2                !
 ! D10   D(3,4,5,6)              8.9845         estimate D2E/DX2                !
 ! D11   D(4,5,6,7)              4.0492         estimate D2E/DX2                !
 ! D12   D(4,5,6,16)          -175.7613         estimate D2E/DX2                !
 ! D13   D(5,6,7,8)            -15.9792         estimate D2E/DX2                !
 ! D14   D(5,6,7,12)           162.6739         estimate D2E/DX2                !
 ! D15   D(16,6,7,8)           163.8263         estimate D2E/DX2                !
 ! D16   D(16,6,7,12)          -17.5205         estimate D2E/DX2                !
 ! D17   D(6,7,8,3)             14.8351         estimate D2E/DX2                !
 ! D18   D(6,7,8,9)           -168.1519         estimate D2E/DX2                !
 ! D19   D(12,7,8,3)          -163.898          estimate D2E/DX2                !
 ! D20   D(12,7,8,9)            13.115          estimate D2E/DX2                !
 ! D21   D(6,7,12,11)          172.6492         estimate D2E/DX2                !
 ! D22   D(6,7,12,14)          -15.9027         estimate D2E/DX2                !
 ! D23   D(8,7,12,11)           -8.6952         estimate D2E/DX2                !
 ! D24   D(8,7,12,14)          162.753          estimate D2E/DX2                !
 ! D25   D(3,8,9,10)           169.1904         estimate D2E/DX2                !
 ! D26   D(3,8,9,17)           -10.133          estimate D2E/DX2                !
 ! D27   D(7,8,9,10)            -7.7247         estimate D2E/DX2                !
 ! D28   D(7,8,9,17)           172.9519         estimate D2E/DX2                !
 ! D29   D(8,9,10,11)           -2.5516         estimate D2E/DX2                !
 ! D30   D(8,9,10,18)         -179.2678         estimate D2E/DX2                !
 ! D31   D(17,9,10,11)         176.7845         estimate D2E/DX2                !
 ! D32   D(17,9,10,18)           0.0683         estimate D2E/DX2                !
 ! D33   D(9,10,11,12)           7.1098         estimate D2E/DX2                !
 ! D34   D(9,10,11,19)        -171.9345         estimate D2E/DX2                !
 ! D35   D(18,10,11,12)       -176.1643         estimate D2E/DX2                !
 ! D36   D(18,10,11,19)          4.7914         estimate D2E/DX2                !
 ! D37   D(10,11,12,7)          -1.3926         estimate D2E/DX2                !
 ! D38   D(10,11,12,14)       -172.9839         estimate D2E/DX2                !
 ! D39   D(19,11,12,7)         177.6433         estimate D2E/DX2                !
 ! D40   D(19,11,12,14)          6.052          estimate D2E/DX2                !
 --------------------------------------------------------------------------------
 Trust Radius=3.00D-01 FncErr=1.00D-07 GrdErr=1.00D-06
 Number of steps in this run=    102 maximum allowed number of steps=    114.
 GradGradGradGradGradGradGradGradGradGradGradGradGradGradGradGradGradGrad

                          Input orientation:                          
 ---------------------------------------------------------------------
 Center     Atomic      Atomic             Coordinates (Angstroms)
 Number     Number       Type             X           Y           Z
 ---------------------------------------------------------------------
      1          7           0        3.580450    1.968810    0.588070
      2          6           0        4.269610    1.154350    0.129470
      3          6           0        5.256040    0.001510   -1.818290
      4          6           0        5.163580    0.193270   -0.436740
      5          6           0        6.015810   -0.501020    0.410520
      6          6           0        7.071070   -1.232480   -0.121540
      7          6           0        7.339530   -1.212320   -1.497640
      8          6           0        6.333960   -0.725310   -2.368220
      9          6           0        6.465650   -0.921020   -3.752910
     10          6           0        7.642370   -1.442740   -4.291480
     11          6           0        8.719290   -1.724400   -3.456250
     12          6           0        8.569900   -1.625550   -2.067890
     13          7           0       10.681170   -1.826570   -0.567650
     14          6           0        9.737860   -1.772990   -1.239890
     15          1           0        4.539140    0.490980   -2.478380
     16          1           0        7.681920   -1.824030    0.557590
     17          1           0        5.653360   -0.657600   -4.429420
     18          1           0        7.739010   -1.579490   -5.366570
     19          1           0        9.677920   -2.005450   -3.890250
 ---------------------------------------------------------------------
                    Distance matrix (angstroms):
                    1          2          3          4          5
     1  N    0.000000
     2  C    1.161293   0.000000
     3  C    3.531068   2.468978   0.000000
     4  C    2.590189   1.429493   1.397856   0.000000
     5  C    3.473120   2.422489   2.407775   1.387870   0.000000
     6  C    4.789179   3.688921   2.774171   2.402214   1.389854
     7  C    5.347939   4.203929   2.432515   2.799277   2.428839
     8  C    4.855899   3.746080   1.411595   2.438072   2.805873
     9  C    5.959833   4.919617   2.461092   3.732829   4.208670
    10  C    7.207487   6.137197   3.727881   4.866205   5.063728
    11  C    7.510260   6.398769   4.201878   5.043607   4.874154
    12  C    6.698370   5.572139   3.700175   4.191870   3.732353
    13  N    8.133930   7.104925   5.859865   5.877133   4.947675
    14  C    7.433452   6.351868   4.854905   5.043339   4.265609
    15  H    3.536408   2.704365   1.090525   2.155655   3.392692
    16  H    5.586468   4.549494   3.855165   3.376422   2.132582
    17  H    6.030770   5.097196   2.722185   4.111613   4.856018
    18  H    8.083427   7.051033   4.610314   5.837700   6.124319
    19  H    8.545714   7.442600   5.279577   6.094290   5.845595
                    6          7          8          9         10
     6  C    0.000000
     7  C    1.402187   0.000000
     8  C    2.418289   1.416425   0.000000
     9  C    3.694643   2.436137   1.404639   0.000000
    10  C    4.214142   2.819636   2.434250   1.395321   0.000000
    11  C    3.752187   2.449922   2.805671   2.410875   1.391653
    12  C    2.487825   1.417658   2.429003   2.786310   2.416213
    13  N    3.685754   3.522604   4.832500   5.360645   4.821674
    14  C    2.941875   2.476444   3.735947   4.212895   3.716496
    15  H    3.864671   3.421296   2.170916   2.707326   4.081255
    16  H    1.088249   2.171495   3.403608   4.568933   4.864198
    17  H    4.571457   3.427276   2.171715   1.089436   2.142810
    18  H    5.298764   3.906791   3.419633   2.158455   1.088053
    19  H    4.647185   3.438271   3.890681   3.393159   2.149673
                   11         12         13         14         15
    11  C    0.000000
    12  C    1.399869   0.000000
    13  N    3.493340   2.597805   0.000000
    14  C    2.439692   1.439254   1.159574   0.000000
    15  H    4.830920   4.571130   6.837138   5.803973   0.000000
    16  H    4.146923   2.778677   3.203384   2.731379   4.945043
    17  H    3.388960   3.875559   6.446598   5.300975   2.523347
    18  H    2.152039   3.402027   5.634446   4.589372   4.782014
    19  H    1.089182   2.166340   3.475368   2.661210   5.884947
                   16         17         18         19
    16  H    0.000000
    17  H    5.508710   0.000000
    18  H    5.929480   2.465374   0.000000
    19  H    4.878546   4.278374   2.473931   0.000000
 Stoichiometry    C12H5N2(1-)
 Framework group  C1[X(C12H5N2)]
 Deg. of freedom    51
 Full point group                 C1      NOp   1
 Largest Abelian subgroup         C1      NOp   1
 Largest concise Abelian subgroup C1      NOp   1
                         Standard orientation:                         
 ---------------------------------------------------------------------
 Center     Atomic      Atomic             Coordinates (Angstroms)
 Number     Number       Type             X           Y           Z
 ---------------------------------------------------------------------
      1          7           0        4.721154   -0.365174   -0.597821
      2          6           0        3.618786   -0.281925   -0.242216
      3          6           0        1.535601    1.007899    0.061996
      4          6           0        2.243701   -0.194901    0.138595
      5          6           0        1.583163   -1.356951    0.512113
      6          6           0        0.197822   -1.356522    0.624034
      7          6           0       -0.551693   -0.221423    0.283584
      8          6           0        0.127244    1.015246    0.157281
      9          6           0       -0.615165    2.204209    0.066687
     10          6           0       -2.004185    2.170561   -0.061415
     11          6           0       -2.660287    0.946758   -0.153795
     12          6           0       -1.946512   -0.243192    0.031074
     13          7           0       -3.126876   -2.499641   -0.482511
     14          6           0       -2.616791   -1.491617   -0.221145
     15          1           0        2.068935    1.932763   -0.160325
     16          1           0       -0.290033   -2.259471    0.985929
     17          1           0       -0.115446    3.172118    0.084125
     18          1           0       -2.569198    3.096840   -0.142823
     19          1           0       -3.724299    0.922613   -0.385337
 ---------------------------------------------------------------------
 Rotational constants (GHZ):      1.3929092      0.4859188      0.3710700
 Standard basis: STO-3G (5D, 7F)
 There are    75 symmetry adapted cartesian basis functions of A   symmetry.
 There are    75 symmetry adapted basis functions of A   symmetry.
    75 basis functions,   225 primitive gaussians,    75 cartesian basis functions
    46 alpha electrons       46 beta electrons
       nuclear repulsion energy       707.8451350377 Hartrees.
 NAtoms=   19 NActive=   19 NUniq=   19 SFac= 1.00D+00 NAtFMM=   60 NAOKFM=F Big=F
 Integral buffers will be    131072 words long.
 Raffenetti 2 integral format.
 Two-electron integral symmetry is turned on.
 One-electron integrals computed using PRISM.
 NBasis=    75 RedAO= T EigKep=  1.55D-01  NBF=    75
 NBsUse=    75 1.00D-06 EigRej= -1.00D+00 NBFU=    75
 ExpMin= 1.69D-01 ExpMax= 9.91D+01 ExpMxC= 9.91D+01 IAcc=1 IRadAn=         1 AccDes= 0.00D+00
 Harris functional with IExCor=  402 and IRadAn=       1 diagonalized for initial guess.
 HarFok:  IExCor=  402 AccDes= 0.00D+00 IRadAn=         1 IDoV= 1 UseB2=F ITyADJ=14
 ICtDFT=  3500011 ScaDFX=  1.000000  1.000000  1.000000  1.000000
 FoFCou: FMM=F IPFlag=           0 FMFlag=      100000 FMFlg1=           0
         NFxFlg=           0 DoJE=T BraDBF=F KetDBF=T FulRan=T
         wScrn=  0.000000 ICntrl=     500 IOpCl=  0 I1Cent=   200000004 NGrid=           0
         NMat0=    1 NMatS0=      1 NMatT0=    0 NMatD0=    1 NMtDS0=    0 NMtDT0=    0
 Petite list used in FoFCou.
 Keep R1 ints in memory in canonical form, NReq=4993994.
 Requested convergence on RMS density matrix=1.00D-08 within 128 cycles.
 Requested convergence on MAX density matrix=1.00D-06.
 Requested convergence on             energy=1.00D-06.
 No special actions if energy rises.
 Integral accuracy reduced to 1.0D-05 until final iterations.
 EnCoef did     5 forward-backward iterations
 EnCoef did     3 forward-backward iterations
 EnCoef did     4 forward-backward iterations
 Initial convergence to 1.0D-05 achieved.  Increase integral accuracy.
 SCF Done:  E(RB3LYP) =  -562.484472460     A.U. after   21 cycles
            NFock= 21  Conv=0.77D-08     -V/T= 2.0129

 **********************************************************************

            Population analysis using the SCF density.

 **********************************************************************

 Orbital symmetries:
       Occupied  (A) (A) (A) (A) (A) (A) (A) (A) (A) (A) (A) (A)
                 (A) (A) (A) (A) (A) (A) (A) (A) (A) (A) (A) (A)
                 (A) (A) (A) (A) (A) (A) (A) (A) (A) (A) (A) (A)
                 (A) (A) (A) (A) (A) (A) (A) (A) (A) (A)
       Virtual   (A) (A) (A) (A) (A) (A) (A) (A) (A) (A) (A) (A)
                 (A) (A) (A) (A) (A) (A) (A) (A) (A) (A) (A) (A)
                 (A) (A) (A) (A) (A)
 The electronic state is 1-A.
 Alpha  occ. eigenvalues --  -13.98543 -13.95092  -9.89422  -9.89270  -9.87410
 Alpha  occ. eigenvalues --   -9.86836  -9.86767  -9.86705  -9.86488  -9.86109
 Alpha  occ. eigenvalues --   -9.84637  -9.83487  -9.79896  -9.69640  -0.73773
 Alpha  occ. eigenvalues --   -0.70911  -0.68623  -0.62446  -0.59235  -0.55450
 Alpha  occ. eigenvalues --   -0.51391  -0.46006  -0.42679  -0.40731  -0.35314
 Alpha  occ. eigenvalues --   -0.33383  -0.30267  -0.27978  -0.25325  -0.23254
 Alpha  occ. eigenvalues --   -0.22478  -0.21422  -0.19708  -0.17577  -0.17158
 Alpha  occ. eigenvalues --   -0.15400  -0.15161  -0.13979  -0.13608  -0.11838
 Alpha  occ. eigenvalues --   -0.10828  -0.09889  -0.07302  -0.02496   0.01054
 Alpha  occ. eigenvalues --    0.10966
 Alpha virt. eigenvalues --    0.16693   0.23000   0.25136   0.28210   0.31055
 Alpha virt. eigenvalues --    0.32916   0.33286   0.39878   0.45363   0.47540
 Alpha virt. eigenvalues --    0.49692   0.53445   0.55851   0.58979   0.59837
 Alpha virt. eigenvalues --    0.61623   0.64324   0.64827   0.70283   0.72629
 Alpha virt. eigenvalues --    0.75424   0.78529   0.81419   0.84952   0.89925
 Alpha virt. eigenvalues --    0.97442   0.98921   1.14871   1.18182
          Condensed to atoms (all electrons):
               1          2          3          4          5          6
     1  N    6.603899   0.686322  -0.000025  -0.011538  -0.000053  -0.000003
     2  C    0.686322   4.909601  -0.036520   0.421787  -0.038565   0.001397
     3  C   -0.000025  -0.036520   4.879993   0.488256  -0.028952  -0.013095
     4  C   -0.011538   0.421787   0.488256   4.803751   0.466144  -0.031714
     5  C   -0.000053  -0.038565  -0.028952   0.466144   5.334478   0.501574
     6  C   -0.000003   0.001397  -0.013095  -0.031714   0.501574   4.889396
     7  C    0.000000  -0.000012  -0.031066  -0.012175  -0.025873   0.472825
     8  C   -0.000001   0.000882   0.491232  -0.030095  -0.012352  -0.033639
     9  C    0.000000  -0.000006  -0.031561   0.000882   0.000034   0.000970
    10  C    0.000000   0.000000   0.000901  -0.000009   0.000000   0.000049
    11  C    0.000000   0.000000   0.000048   0.000000  -0.000012   0.000813
    12  C    0.000000   0.000001   0.000972   0.000069   0.001040  -0.029424
    13  N    0.000000   0.000000   0.000000   0.000000   0.000000  -0.000086
    14  C    0.000000   0.000000  -0.000009   0.000001   0.000019  -0.004263
    15  H    0.000055  -0.002853   0.383788  -0.026178   0.001527   0.000100
    16  H    0.000000  -0.000007   0.000010   0.002058  -0.035446   0.388471
    17  H    0.000000  -0.000001  -0.003851   0.000022  -0.000002  -0.000021
    18  H    0.000000   0.000000  -0.000019   0.000000   0.000000   0.000001
    19  H    0.000000   0.000000   0.000001   0.000000   0.000000  -0.000019
               7          8          9         10         11         12
     1  N    0.000000  -0.000001   0.000000   0.000000   0.000000   0.000000
     2  C   -0.000012   0.000882  -0.000006   0.000000   0.000000   0.000001
     3  C   -0.031066   0.491232  -0.031561   0.000901   0.000048   0.000972
     4  C   -0.012175  -0.030095   0.000882  -0.000009   0.000000   0.000069
     5  C   -0.025873  -0.012352   0.000034   0.000000  -0.000012   0.001040
     6  C    0.472825  -0.033639   0.000970   0.000049   0.000813  -0.029424
     7  C    4.798327   0.464367  -0.028027  -0.010076  -0.029135   0.465573
     8  C    0.464367   4.783161   0.480789  -0.029642  -0.010490  -0.030730
     9  C   -0.028027   0.480789   4.834230   0.514776  -0.031283  -0.011628
    10  C   -0.010076  -0.029642   0.514776   4.828432   0.496744  -0.031025
    11  C   -0.029135  -0.010490  -0.031283   0.496744   4.833487   0.502466
    12  C    0.465573  -0.030730  -0.011628  -0.031025   0.502466   4.777962
    13  N   -0.000107  -0.000002   0.000000  -0.000001  -0.000174  -0.011356
    14  C   -0.029604   0.000948   0.000023   0.001056  -0.033340   0.427792
    15  H    0.001370  -0.026515  -0.003804   0.000019  -0.000002  -0.000016
    16  H   -0.031405   0.001305  -0.000027  -0.000001   0.000015  -0.003559
    17  H    0.001405  -0.024976   0.389197  -0.027302   0.001537   0.000041
    18  H    0.000031   0.001437  -0.025794   0.390834  -0.026583   0.001488
    19  H    0.001320   0.000033   0.001522  -0.026340   0.389885  -0.025141
              13         14         15         16         17         18
     1  N    0.000000   0.000000   0.000055   0.000000   0.000000   0.000000
     2  C    0.000000   0.000000  -0.002853  -0.000007  -0.000001   0.000000
     3  C    0.000000  -0.000009   0.383788   0.000010  -0.003851  -0.000019
     4  C    0.000000   0.000001  -0.026178   0.002058   0.000022   0.000000
     5  C    0.000000   0.000019   0.001527  -0.035446  -0.000002   0.000000
     6  C   -0.000086  -0.004263   0.000100   0.388471  -0.000021   0.000001
     7  C   -0.000107  -0.029604   0.001370  -0.031405   0.001405   0.000031
     8  C   -0.000002   0.000948  -0.026515   0.001305  -0.024976   0.001437
     9  C    0.000000   0.000023  -0.003804  -0.000027   0.389197  -0.025794
    10  C   -0.000001   0.001056   0.000019  -0.000001  -0.027302   0.390834
    11  C   -0.000174  -0.033340  -0.000002   0.000015   0.001537  -0.026583
    12  C   -0.011356   0.427792  -0.000016  -0.003559   0.000041   0.001488
    13  N    6.576566   0.687855   0.000000  -0.000157   0.000000   0.000000
    14  C    0.687855   4.888383   0.000000   0.001198   0.000001  -0.000021
    15  H    0.000000   0.000000   0.627704   0.000004   0.000859  -0.000002
    16  H   -0.000157   0.001198   0.000004   0.639652   0.000001   0.000000
    17  H    0.000000   0.000001   0.000859   0.000001   0.610727  -0.003995
    18  H    0.000000  -0.000021  -0.000002   0.000000  -0.003995   0.615117
    19  H    0.000057  -0.003906   0.000000   0.000000  -0.000040  -0.003947
              19
     1  N    0.000000
     2  C    0.000000
     3  C    0.000001
     4  C    0.000000
     5  C    0.000000
     6  C   -0.000019
     7  C    0.001320
     8  C    0.000033
     9  C    0.001522
    10  C   -0.026340
    11  C    0.389885
    12  C   -0.025141
    13  N    0.000057
    14  C   -0.003906
    15  H    0.000000
    16  H    0.000000
    17  H   -0.000040
    18  H   -0.003947
    19  H    0.607935
 Mulliken charges:
               1
     1  N   -0.278656
     2  C    0.057975
     3  C   -0.100103
     4  C   -0.071259
     5  C   -0.163563
     6  C   -0.143332
     7  C   -0.007740
     8  C   -0.025711
     9  C   -0.090293
    10  C   -0.108414
    11  C   -0.093973
    12  C   -0.034525
    13  N   -0.252594
    14  C    0.063865
    15  H    0.043942
    16  H    0.037888
    17  H    0.056399
    18  H    0.051453
    19  H    0.058639
 Sum of Mulliken charges =  -1.00000
 Mulliken charges with hydrogens summed into heavy atoms:
               1
     1  N   -0.278656
     2  C    0.057975
     3  C   -0.056161
     4  C   -0.071259
     5  C   -0.163563
     6  C   -0.105444
     7  C   -0.007740
     8  C   -0.025711
     9  C   -0.033894
    10  C   -0.056961
    11  C   -0.035334
    12  C   -0.034525
    13  N   -0.252594
    14  C    0.063865
 Electronic spatial extent (au):  <R**2>=           2780.3346
 Charge=             -1.0000 electrons
 Dipole moment (field-independent basis, Debye):
    X=             -4.5460    Y=              5.2685    Z=              0.3557  Tot=              6.9678
 Quadrupole moment (field-independent basis, Debye-Ang):
   XX=           -122.8528   YY=            -88.3250   ZZ=            -75.9047
   XY=             -2.3847   XZ=              1.1441   YZ=             -0.7210
 Traceless Quadrupole moment (field-independent basis, Debye-Ang):
   XX=            -27.1587   YY=              7.3691   ZZ=             19.7895
   XY=             -2.3847   XZ=              1.1441   YZ=             -0.7210
 Octapole moment (field-independent basis, Debye-Ang**2):
  XXX=           -139.6059  YYY=             36.2373  ZZZ=             -3.0404  XYY=             25.9353
  XXY=             56.5758  XXZ=             26.9435  XZZ=             -1.6665  YZZ=             -0.7677
  YYZ=              1.4248  XYZ=              8.5340
 Hexadecapole moment (field-independent basis, Debye-Ang**3):
 XXXX=          -3488.6940 YYYY=          -1013.0702 ZZZZ=           -110.4187 XXXY=            -30.4393
 XXXZ=            103.0740 YYYX=            -63.9225 YYYZ=            -10.6148 ZZZX=             -2.5249
 ZZZY=              4.0557 XXYY=           -694.8599 XXZZ=           -456.6365 YYZZ=           -183.0015
 XXYZ=            -28.2426 YYXZ=            -27.2464 ZZXY=              6.5121
 N-N= 7.078451350377D+02 E-N=-2.737962416378D+03  KE= 5.553036986431D+02
 Calling FoFJK, ICntrl=      2127 FMM=F ISym2X=0 I1Cent= 0 IOpClX= 0 NMat=1 NMatS=1 NMatT=0.
 ***** Axes restored to original set *****
 -------------------------------------------------------------------
 Center     Atomic                   Forces (Hartrees/Bohr)
 Number     Number              X              Y              Z
 -------------------------------------------------------------------
      1        7          -0.062795506    0.068068046    0.041265209
      2        6           0.043645383   -0.039897288   -0.033722775
      3        6          -0.023487176    0.006204289   -0.012685800
      4        6           0.014679678   -0.004250075   -0.019886629
      5        6           0.008805449   -0.024020177    0.054144780
      6        6          -0.017312079    0.012950311    0.023933799
      7        6           0.022531801   -0.005856573    0.011851659
      8        6          -0.025471772    0.018099951   -0.004408727
      9        6           0.011341812   -0.007852508   -0.029925710
     10        6          -0.018378708    0.007303950   -0.009786788
     11        6           0.014975350   -0.007422087    0.001770196
     12        6           0.016063742   -0.002400370   -0.016888185
     13        7           0.087999110   -0.007208196    0.060483973
     14        6          -0.075611143    0.001759594   -0.047709502
     15        1          -0.007634374   -0.005987838   -0.008391227
     16        1           0.010404810   -0.008778682   -0.000168621
     17        1          -0.006272026    0.004508925   -0.001808201
     18        1           0.000673846   -0.000352317   -0.007270403
     19        1           0.005841804   -0.004868957   -0.000797050
 -------------------------------------------------------------------
 Cartesian Forces:  Max     0.087999110 RMS     0.028090565

 GradGradGradGradGradGradGradGradGradGradGradGradGradGradGradGradGradGrad
 Berny optimization.
 FormGI is forming the generalized inverse of G from B-inverse, IUseBI=4.
 Internal  Forces:  Max     0.106983659 RMS     0.019761361
 Search for a local minimum.
 Step number   1 out of a maximum of  102
 All quantities printed in internal units (Hartrees-Bohrs-Radians)
 Mixed Optimization -- RFO/linear search
 Second derivative matrix not updated -- first step.
 ITU=  0
     Eigenvalues ---    0.01699   0.01699   0.01934   0.01981   0.01997
     Eigenvalues ---    0.02027   0.02055   0.02069   0.02086   0.02111
     Eigenvalues ---    0.02140   0.02154   0.02168   0.02180   0.02187
     Eigenvalues ---    0.02240   0.04872   0.04872   0.15931   0.15974
     Eigenvalues ---    0.15998   0.15999   0.16000   0.22041   0.22770
     Eigenvalues ---    0.23400   0.23682   0.24658   0.24815   0.24949
     Eigenvalues ---    0.24959   0.34752   0.34878   0.34907   0.35016
     Eigenvalues ---    0.35039   0.38464   0.39688   0.40488   0.41062
     Eigenvalues ---    0.41232   0.43051   0.43956   0.45273   0.45362
     Eigenvalues ---    0.45581   0.46221   0.46552   0.47265   1.26951
     Eigenvalues ---    1.28073
 RFO step:  Lambda=-5.25676521D-02 EMin= 1.69861685D-02
 Linear search not attempted -- first point.
 Maximum step size (   0.300) exceeded in Quadratic search.
    -- Step size scaled by   0.963
 Iteration  1 RMS(Cart)=  0.07590189 RMS(Int)=  0.00208029
 Iteration  2 RMS(Cart)=  0.00301337 RMS(Int)=  0.00047251
 Iteration  3 RMS(Cart)=  0.00000948 RMS(Int)=  0.00047246
 Iteration  4 RMS(Cart)=  0.00000000 RMS(Int)=  0.00047246
 Variable       Old X    -DE/DX   Delta X   Delta X   Delta X     New X
                                 (Linear)    (Quad)   (Total)
    R1        2.19453   0.10130   0.00000   0.07381   0.07381   2.26833
    R2        2.70135   0.03395   0.00000   0.07060   0.07060   2.77195
    R3        2.64156   0.02733   0.00000   0.05091   0.05071   2.69228
    R4        2.66753   0.01495   0.00000   0.02939   0.02922   2.69674
    R5        2.06079   0.00735   0.00000   0.01770   0.01770   2.07850
    R6        2.62269   0.04960   0.00000   0.08974   0.08981   2.71250
    R7        2.62644   0.01352   0.00000   0.02475   0.02494   2.65138
    R8        2.64975   0.03924   0.00000   0.07532   0.07542   2.72517
    R9        2.05649   0.01048   0.00000   0.02506   0.02506   2.08155
   R10        2.67666   0.04456   0.00000   0.09142   0.09159   2.76825
   R11        2.67899   0.03474   0.00000   0.07088   0.07109   2.75008
   R12        2.65438   0.03306   0.00000   0.06411   0.06403   2.71841
   R13        2.63677   0.00461   0.00000   0.00736   0.00714   2.64392
   R14        2.05874   0.00689   0.00000   0.01654   0.01654   2.07527
   R15        2.62984   0.02920   0.00000   0.05203   0.05188   2.68173
   R16        2.05612   0.00729   0.00000   0.01742   0.01742   2.07354
   R17        2.64537   0.01585   0.00000   0.02937   0.02944   2.67481
   R18        2.05825   0.00672   0.00000   0.01610   0.01610   2.07436
   R19        2.71980   0.01797   0.00000   0.03852   0.03852   2.75832
   R20        2.19128   0.10698   0.00000   0.07729   0.07729   2.26857
    A1        2.10154  -0.00517   0.00000  -0.01979  -0.02046   2.08108
    A2        2.08654   0.00811   0.00000   0.03490   0.03534   2.12188
    A3        2.09127  -0.00293   0.00000  -0.01499  -0.01475   2.07651
    A4        2.12359  -0.01474   0.00000  -0.04525  -0.04530   2.07829
    A5        2.06979  -0.00087   0.00000  -0.00102  -0.00104   2.06876
    A6        2.08761   0.01589   0.00000   0.04954   0.04839   2.13600
    A7        2.08956  -0.01836   0.00000  -0.06047  -0.06028   2.02928
    A8        2.11005   0.00917   0.00000   0.03285   0.03299   2.14304
    A9        2.06390   0.00428   0.00000   0.02376   0.02358   2.08748
   A10        2.10923  -0.01346   0.00000  -0.05667  -0.05681   2.05242
   A11        2.06260  -0.00169   0.00000  -0.00730  -0.00748   2.05512
   A12        2.16125   0.00750   0.00000   0.02110   0.02036   2.18161
   A13        2.05911  -0.00574   0.00000  -0.01277  -0.01298   2.04613
   A14        2.07112  -0.00041   0.00000  -0.00318  -0.00372   2.06740
   A15        2.12631   0.00420   0.00000   0.01116   0.01131   2.13762
   A16        2.08454  -0.00371   0.00000  -0.00691  -0.00677   2.07777
   A17        2.10792   0.00295   0.00000   0.00983   0.00951   2.11743
   A18        2.10431  -0.00500   0.00000  -0.02083  -0.02069   2.08362
   A19        2.07090   0.00205   0.00000   0.01109   0.01124   2.08214
   A20        2.09050   0.00392   0.00000   0.00905   0.00856   2.09906
   A21        2.09819  -0.00204   0.00000  -0.00432  -0.00425   2.09394
   A22        2.09307  -0.00178   0.00000  -0.00329  -0.00323   2.08984
   A23        2.09251   0.00290   0.00000   0.00622   0.00614   2.09865
   A24        2.08767   0.00057   0.00000   0.00608   0.00611   2.09379
   A25        2.10289  -0.00345   0.00000  -0.01220  -0.01217   2.09071
   A26        2.10847   0.00040   0.00000   0.00483   0.00452   2.11300
   A27        2.09757  -0.00047   0.00000  -0.00039  -0.00114   2.09642
   A28        2.06773   0.00072   0.00000   0.00376   0.00301   2.07074
   A29        3.14512   0.00210   0.00000   0.02905   0.02905   3.17417
   A30        3.14122   0.00383   0.00000   0.03643   0.03643   3.17765
   A31        3.08726   0.00710   0.00000   0.09833   0.09833   3.18559
   A32        3.19960  -0.00495   0.00000  -0.04707  -0.04707   3.15254
    D1        2.89768  -0.00205   0.00000  -0.02885  -0.02948   2.86819
    D2       -0.17176  -0.00678   0.00000  -0.08247  -0.08354  -0.25530
    D3       -0.14972  -0.00208   0.00000  -0.02949  -0.03020  -0.17992
    D4        3.06403  -0.00681   0.00000  -0.08311  -0.08425   2.97978
    D5       -0.03866   0.00369   0.00000   0.05766   0.05646   0.01779
    D6       -3.12681   0.00214   0.00000   0.03446   0.03355  -3.09326
    D7        3.00848   0.00431   0.00000   0.06099   0.05987   3.06835
    D8       -0.07967   0.00277   0.00000   0.03779   0.03697  -0.04270
    D9       -2.91485   0.00092   0.00000   0.00787   0.00653  -2.90832
   D10        0.15681   0.00490   0.00000   0.05792   0.05845   0.21526
   D11        0.07067  -0.00017   0.00000  -0.01045  -0.00968   0.06099
   D12       -3.06761   0.00116   0.00000   0.01009   0.01137  -3.05624
   D13       -0.27889  -0.00046   0.00000  -0.00601  -0.00568  -0.28457
   D14        2.83920   0.00339   0.00000   0.04632   0.04645   2.88564
   D15        2.85931  -0.00180   0.00000  -0.02694  -0.02618   2.83313
   D16       -0.30579   0.00205   0.00000   0.02540   0.02594  -0.27985
   D17        0.25892  -0.00185   0.00000  -0.02045  -0.02095   0.23798
   D18       -2.93480  -0.00010   0.00000   0.00275   0.00172  -2.93309
   D19       -2.86056  -0.00565   0.00000  -0.07013  -0.06942  -2.92998
   D20        0.22890  -0.00390   0.00000  -0.04693  -0.04676   0.18214
   D21        3.01330  -0.00251   0.00000  -0.03389  -0.03353   2.97977
   D22       -0.27755   0.00262   0.00000   0.03100   0.03112  -0.24643
   D23       -0.15176   0.00138   0.00000   0.01842   0.01842  -0.13334
   D24        2.84058   0.00652   0.00000   0.08330   0.08307   2.92364
   D25        2.95293   0.00374   0.00000   0.05289   0.05281   3.00574
   D26       -0.17685   0.00324   0.00000   0.04378   0.04360  -0.13325
   D27       -0.13482   0.00209   0.00000   0.02940   0.02968  -0.10514
   D28        3.01858   0.00159   0.00000   0.02029   0.02047   3.03905
   D29       -0.04453   0.00124   0.00000   0.01464   0.01440  -0.03013
   D30       -3.12881  -0.00075   0.00000  -0.01418  -0.01449   3.13988
   D31        3.08547   0.00168   0.00000   0.02336   0.02340   3.10887
   D32        0.00119  -0.00031   0.00000  -0.00546  -0.00550  -0.00431
   D33        0.12409  -0.00266   0.00000  -0.04086  -0.04118   0.08291
   D34       -3.00082  -0.00320   0.00000  -0.04804  -0.04829  -3.04911
   D35       -3.07465  -0.00069   0.00000  -0.01217  -0.01238  -3.08703
   D36        0.08363  -0.00123   0.00000  -0.01935  -0.01950   0.06413
   D37       -0.02430   0.00245   0.00000   0.02649   0.02640   0.00210
   D38       -3.01914  -0.00250   0.00000  -0.03696  -0.03697  -3.05611
   D39        3.10046   0.00303   0.00000   0.03392   0.03368   3.13414
   D40        0.10563  -0.00191   0.00000  -0.02953  -0.02969   0.07594
         Item               Value     Threshold  Converged?
 Maximum Force            0.106984     0.000450     NO 
 RMS     Force            0.019761     0.000300     NO 
 Maximum Displacement     0.337632     0.001800     NO 
 RMS     Displacement     0.075707     0.001200     NO 
 Predicted change in Energy=-3.029634D-02
 GradGradGradGradGradGradGradGradGradGradGradGradGradGradGradGradGradGrad

                          Input orientation:                          
 ---------------------------------------------------------------------
 Center     Atomic      Atomic             Coordinates (Angstroms)
 Number     Number       Type             X           Y           Z
 ---------------------------------------------------------------------
      1          7           0        3.420824    1.975665    0.602774
      2          6           0        4.207412    1.206038    0.123406
      3          6           0        5.204262    0.000765   -1.817283
      4          6           0        5.153874    0.220785   -0.410585
      5          6           0        6.012861   -0.472181    0.507181
      6          6           0        7.085563   -1.177840   -0.058422
      7          6           0        7.374229   -1.159344   -1.471214
      8          6           0        6.324050   -0.685254   -2.375799
      9          6           0        6.474735   -0.893818   -3.791124
     10          6           0        7.653322   -1.424520   -4.326631
     11          6           0        8.747343   -1.736590   -3.478339
     12          6           0        8.620195   -1.608210   -2.074473
     13          7           0       10.791854   -2.005237   -0.591235
     14          6           0        9.797621   -1.833523   -1.241739
     15          1           0        4.445652    0.421434   -2.493533
     16          1           0        7.731321   -1.794845    0.586267
     17          1           0        5.649490   -0.629174   -4.465624
     18          1           0        7.743851   -1.575897   -5.409635
     19          1           0        9.699181   -2.070302   -3.911461
 ---------------------------------------------------------------------
                    Distance matrix (angstroms):
                    1          2          3          4          5
     1  N    0.000000
     2  C    1.200349   0.000000
     3  C    3.596881   2.492522   0.000000
     4  C    2.666451   1.466854   1.424691   0.000000
     5  C    3.566474   2.494664   2.506120   1.435394   0.000000
     6  C    4.879763   3.741616   2.832312   2.410725   1.403051
     7  C    5.455192   4.262227   2.484829   2.821289   2.497912
     8  C    4.937723   3.781953   1.427056   2.460139   2.907544
     9  C    6.071790   4.987353   2.512056   3.796716   4.343561
    10  C    7.333098   6.212646   3.784992   4.928457   5.192668
    11  C    7.668645   6.499431   4.281464   5.114240   4.996048
    12  C    6.858955   5.676559   3.784647   4.257832   3.841053
    13  N    8.461993   7.360563   6.062048   6.064209   5.137661
    14  C    7.653475   6.507918   4.979439   5.145424   4.385931
    15  H    3.612896   2.742396   1.099894   2.209188   3.501282
    16  H    5.726902   4.651610   3.922664   3.420485   2.169977
    17  H    6.118888   5.148475   2.758398   4.172697   4.988534
    18  H    8.212868   7.131627   4.673368   5.909868   6.262845
    19  H    8.727310   7.561355   5.373937   6.177785   5.972215
                    6          7          8          9         10
     6  C    0.000000
     7  C    1.442100   0.000000
     8  C    2.488529   1.464893   0.000000
     9  C    3.792998   2.502314   1.438523   0.000000
    10  C    4.312865   2.881253   2.473706   1.399100   0.000000
    11  C    3.843117   2.499441   2.862385   2.443941   1.419109
    12  C    2.569975   1.455277   2.492976   2.839058   2.457805
    13  N    3.834719   3.629057   4.988817   5.487445   4.913329
    14  C    3.030746   2.525867   3.830184   4.292317   3.779135
    15  H    3.931485   3.481460   2.183347   2.744232   4.130005
    16  H    1.101509   2.182797   3.461999   4.642457   4.927453
    17  H    4.667629   3.496040   2.196712   1.098187   2.160378
    18  H    5.406224   3.977598   3.466012   2.166903   1.097272
    19  H    4.740611   3.491425   3.958298   3.434480   2.185164
                   11         12         13         14         15
    11  C    0.000000
    12  C    1.415447   0.000000
    13  N    3.547896   2.659647   0.000000
    14  C    2.472824   1.459638   1.200475   0.000000
    15  H    4.912378   4.660674   7.055619   5.940993   0.000000
    16  H    4.190073   2.811488   3.285976   2.759112   5.019232
    17  H    3.434792   3.937157   6.583946   5.389887   2.538138
    18  H    2.182366   3.448526   5.717659   4.653568   4.834367
    19  H    1.097704   2.179969   3.496008   2.682009   5.984885
                   16         17         18         19
    16  H    0.000000
    17  H    5.586985   0.000000
    18  H    5.999911   2.484711   0.000000
    19  H    4.917103   4.334045   2.512424   0.000000
 Stoichiometry    C12H5N2(1-)
 Framework group  C1[X(C12H5N2)]
 Deg. of freedom    51
 Full point group                 C1      NOp   1
 Largest Abelian subgroup         C1      NOp   1
 Largest concise Abelian subgroup C1      NOp   1
                         Standard orientation:                         
 ---------------------------------------------------------------------
 Center     Atomic      Atomic             Coordinates (Angstroms)
 Number     Number       Type             X           Y           Z
 ---------------------------------------------------------------------
      1          7           0        4.849912   -0.365969   -0.539948
      2          6           0        3.683304   -0.290554   -0.267596
      3          6           0        1.589026    1.009337    0.102474
      4          6           0        2.268967   -0.242530    0.118415
      5          6           0        1.614602   -1.468264    0.478606
      6          6           0        0.214387   -1.425030    0.556582
      7          6           0       -0.550370   -0.248754    0.223157
      8          6           0        0.162680    1.028384    0.143231
      9          6           0       -0.595878    2.248563    0.071791
     10          6           0       -1.989736    2.232425   -0.048128
     11          6           0       -2.685616    0.998982   -0.138898
     12          6           0       -1.986947   -0.225054   -0.008185
     13          7           0       -3.343650   -2.476581   -0.412789
     14          6           0       -2.716168   -1.472489   -0.214791
     15          1           0        2.131058    1.957499   -0.027749
     16          1           0       -0.338727   -2.310983    0.906547
     17          1           0       -0.070878    3.212387    0.109650
     18          1           0       -2.546539    3.176549   -0.099176
     19          1           0       -3.768247    0.992307   -0.320062
 ---------------------------------------------------------------------
 Rotational constants (GHZ):      1.3597349      0.4623505      0.3531019
 Standard basis: STO-3G (5D, 7F)
 There are    75 symmetry adapted cartesian basis functions of A   symmetry.
 There are    75 symmetry adapted basis functions of A   symmetry.
    75 basis functions,   225 primitive gaussians,    75 cartesian basis functions
    46 alpha electrons       46 beta electrons
       nuclear repulsion energy       692.9799633062 Hartrees.
 NAtoms=   19 NActive=   19 NUniq=   19 SFac= 1.00D+00 NAtFMM=   60 NAOKFM=F Big=F
 Integral buffers will be    131072 words long.
 Raffenetti 2 integral format.
 Two-electron integral symmetry is turned on.
 One-electron integrals computed using PRISM.
 NBasis=    75 RedAO= T EigKep=  1.76D-01  NBF=    75
 NBsUse=    75 1.00D-06 EigRej= -1.00D+00 NBFU=    75
 Initial guess from the checkpoint file:  "/tmp/bnp.472618.sequoia/Gau-14656.chk"
 B after Tr=     0.000000    0.000000    0.000000
         Rot=    0.999966   -0.004260   -0.000766    0.007004 Ang=  -0.94 deg.
 ExpMin= 1.69D-01 ExpMax= 9.91D+01 ExpMxC= 9.91D+01 IAcc=1 IRadAn=         1 AccDes= 0.00D+00
 Harris functional with IExCor=  402 and IRadAn=       1 diagonalized for initial guess.
 HarFok:  IExCor=  402 AccDes= 0.00D+00 IRadAn=         1 IDoV= 1 UseB2=F ITyADJ=14
 ICtDFT=  3500011 ScaDFX=  1.000000  1.000000  1.000000  1.000000
 FoFCou: FMM=F IPFlag=           0 FMFlag=      100000 FMFlg1=           0
         NFxFlg=           0 DoJE=T BraDBF=F KetDBF=T FulRan=T
         wScrn=  0.000000 ICntrl=     500 IOpCl=  0 I1Cent=   200000004 NGrid=           0
         NMat0=    1 NMatS0=      1 NMatT0=    0 NMatD0=    1 NMtDS0=    0 NMtDT0=    0
 Petite list used in FoFCou.
 Keep R1 ints in memory in canonical form, NReq=4993994.
 Requested convergence on RMS density matrix=1.00D-08 within 128 cycles.
 Requested convergence on MAX density matrix=1.00D-06.
 Requested convergence on             energy=1.00D-06.
 No special actions if energy rises.
 Integral accuracy reduced to 1.0D-05 until final iterations.
 Initial convergence to 1.0D-05 achieved.  Increase integral accuracy.
 SCF Done:  E(RB3LYP) =  -562.511410300     A.U. after   16 cycles
            NFock= 16  Conv=0.90D-08     -V/T= 2.0142
 Calling FoFJK, ICntrl=      2127 FMM=F ISym2X=0 I1Cent= 0 IOpClX= 0 NMat=1 NMatS=1 NMatT=0.
 ***** Axes restored to original set *****
 -------------------------------------------------------------------
 Center     Atomic                   Forces (Hartrees/Bohr)
 Number     Number              X              Y              Z
 -------------------------------------------------------------------
      1        7           0.000024715    0.000355407   -0.001088017
      2        6          -0.003286184    0.002765438    0.001925329
      3        6          -0.005786300    0.002482091    0.005638501
      4        6           0.010614280   -0.002313984   -0.015418518
      5        6          -0.000875436   -0.005566306    0.015015951
      6        6          -0.006579213    0.006776100   -0.003898362
      7        6           0.005446328   -0.000368347    0.001638468
      8        6          -0.000762234    0.001805785   -0.000703528
      9        6           0.007518695   -0.003341350   -0.002565034
     10        6          -0.005287891    0.002901900    0.001980591
     11        6           0.000262440   -0.000766730    0.004116058
     12        6          -0.001611082    0.003798208   -0.006679147
     13        7          -0.000276918   -0.000136703   -0.000089257
     14        6          -0.000045517   -0.003520923    0.001149682
     15        1          -0.002086579   -0.004915762   -0.000152666
     16        1           0.002910486   -0.000691468   -0.002245970
     17        1          -0.000684037    0.002172577    0.001003446
     18        1           0.000860081    0.000414908   -0.000099871
     19        1          -0.000355635   -0.001850841    0.000472342
 -------------------------------------------------------------------
 Cartesian Forces:  Max     0.015418518 RMS     0.004413213

 GradGradGradGradGradGradGradGradGradGradGradGradGradGradGradGradGradGrad
 Berny optimization.
 Using GEDIIS/GDIIS optimizer.
 FormGI is forming the generalized inverse of G from B-inverse, IUseBI=4.
 Internal  Forces:  Max     0.010237444 RMS     0.002454460
 Search for a local minimum.
 Step number   2 out of a maximum of  102
 All quantities printed in internal units (Hartrees-Bohrs-Radians)
 Mixed Optimization -- RFO/linear search
 Update second derivatives using D2CorX and points    1    2
 DE= -2.69D-02 DEPred=-3.03D-02 R= 8.89D-01
 TightC=F SS=  1.41D+00  RLast= 3.92D-01 DXNew= 5.0454D-01 1.1775D+00
 Trust test= 8.89D-01 RLast= 3.92D-01 DXMaxT set to 5.05D-01
 ITU=  1  0
 Use linear search instead of GDIIS.
     Eigenvalues ---    0.01697   0.01730   0.01920   0.01984   0.02003
     Eigenvalues ---    0.02010   0.02048   0.02053   0.02087   0.02124
     Eigenvalues ---    0.02139   0.02156   0.02166   0.02177   0.02184
     Eigenvalues ---    0.02310   0.04872   0.04913   0.15843   0.15947
     Eigenvalues ---    0.15996   0.15999   0.16006   0.22062   0.22370
     Eigenvalues ---    0.23069   0.23538   0.24600   0.24842   0.24923
     Eigenvalues ---    0.24992   0.34769   0.34882   0.34920   0.35021
     Eigenvalues ---    0.35063   0.38925   0.39727   0.40628   0.40785
     Eigenvalues ---    0.41418   0.43097   0.43994   0.45269   0.45371
     Eigenvalues ---    0.45638   0.46451   0.47016   0.50226   1.27367
     Eigenvalues ---    1.30164
 RFO step:  Lambda=-6.88579786D-03 EMin= 1.69708408D-02
 Quartic linear search produced a step of  0.12166.
 Iteration  1 RMS(Cart)=  0.10199275 RMS(Int)=  0.00453903
 Iteration  2 RMS(Cart)=  0.00738150 RMS(Int)=  0.00060301
 Iteration  3 RMS(Cart)=  0.00003022 RMS(Int)=  0.00060269
 Iteration  4 RMS(Cart)=  0.00000001 RMS(Int)=  0.00060269
 Variable       Old X    -DE/DX   Delta X   Delta X   Delta X     New X
                                 (Linear)    (Quad)   (Total)
    R1        2.26833  -0.00022   0.00898  -0.00758   0.00140   2.26973
    R2        2.77195   0.00451   0.00859   0.00479   0.01338   2.78534
    R3        2.69228  -0.00525   0.00617  -0.01840  -0.01241   2.67987
    R4        2.69674  -0.00058   0.00355  -0.00461  -0.00138   2.69536
    R5        2.07850  -0.00035   0.00215  -0.00291  -0.00075   2.07775
    R6        2.71250   0.00706   0.01093   0.00635   0.01753   2.73003
    R7        2.65138   0.00055   0.00303  -0.00107   0.00232   2.65371
    R8        2.72517  -0.00036   0.00918  -0.00761   0.00165   2.72683
    R9        2.08155   0.00078   0.00305  -0.00014   0.00291   2.08446
   R10        2.76825  -0.00095   0.01114  -0.01031   0.00057   2.76882
   R11        2.75008  -0.00125   0.00865  -0.01017  -0.00122   2.74886
   R12        2.71841  -0.00011   0.00779  -0.00636   0.00107   2.71948
   R13        2.64392  -0.00495   0.00087  -0.01258  -0.01200   2.63191
   R14        2.07527   0.00042   0.00201  -0.00037   0.00164   2.07691
   R15        2.68173   0.00050   0.00631  -0.00470   0.00169   2.68341
   R16        2.07354   0.00011   0.00212  -0.00143   0.00069   2.07424
   R17        2.67481  -0.00453   0.00358  -0.01422  -0.01027   2.66453
   R18        2.07436   0.00007   0.00196  -0.00143   0.00053   2.07489
   R19        2.75832   0.00091   0.00469  -0.00142   0.00327   2.76158
   R20        2.26857  -0.00026   0.00940  -0.00796   0.00145   2.27002
    A1        2.08108  -0.00126  -0.00249  -0.00664  -0.01029   2.07080
    A2        2.12188   0.00166   0.00430   0.00837   0.01312   2.13500
    A3        2.07651  -0.00033  -0.00179   0.00065  -0.00082   2.07570
    A4        2.07829  -0.00575  -0.00551  -0.01813  -0.02429   2.05401
    A5        2.06876  -0.00092  -0.00013  -0.00184  -0.00270   2.06606
    A6        2.13600   0.00670   0.00589   0.02115   0.02525   2.16124
    A7        2.02928  -0.01024  -0.00733  -0.04069  -0.04762   1.98167
    A8        2.14304   0.00551   0.00401   0.02475   0.02883   2.17187
    A9        2.08748   0.00092   0.00287   0.00773   0.01052   2.09800
   A10        2.05242  -0.00644  -0.00691  -0.03267  -0.03964   2.01278
   A11        2.05512  -0.00019  -0.00091  -0.00065  -0.00252   2.05260
   A12        2.18161   0.00059   0.00248  -0.00254  -0.00058   2.18102
   A13        2.04613  -0.00044  -0.00158   0.00160  -0.00084   2.04529
   A14        2.06740  -0.00064  -0.00045  -0.00408  -0.00522   2.06218
   A15        2.13762   0.00147   0.00138   0.00347   0.00560   2.14323
   A16        2.07777  -0.00081  -0.00082   0.00141   0.00001   2.07778
   A17        2.11743   0.00084   0.00116   0.00568   0.00576   2.12319
   A18        2.08362  -0.00230  -0.00252  -0.01366  -0.01565   2.06796
   A19        2.08214   0.00147   0.00137   0.00799   0.00989   2.09203
   A20        2.09906   0.00007   0.00104   0.00022   0.00033   2.09939
   A21        2.09394   0.00067  -0.00052   0.00502   0.00453   2.09846
   A22        2.08984  -0.00071  -0.00039  -0.00425  -0.00462   2.08522
   A23        2.09865  -0.00033   0.00075  -0.00215  -0.00140   2.09725
   A24        2.09379   0.00062   0.00074   0.00321   0.00390   2.09769
   A25        2.09071  -0.00029  -0.00148  -0.00094  -0.00247   2.08824
   A26        2.11300   0.00107   0.00055   0.00820   0.00704   2.12004
   A27        2.09642  -0.00067  -0.00014  -0.00111  -0.00340   2.09303
   A28        2.07074  -0.00019   0.00037   0.00072  -0.00106   2.06969
   A29        3.17417  -0.00231   0.00353  -0.11130  -0.10777   3.06640
   A30        3.17765  -0.00018   0.00443  -0.00779  -0.00336   3.17429
   A31        3.18559  -0.00083   0.01196  -0.05174  -0.03978   3.14581
   A32        3.15254  -0.00038  -0.00573  -0.00209  -0.00781   3.14472
    D1        2.86819  -0.00028  -0.00359  -0.00796  -0.01203   2.85616
    D2       -0.25530  -0.00282  -0.01016  -0.08624  -0.09706  -0.35236
    D3       -0.17992  -0.00109  -0.00367  -0.03785  -0.04223  -0.22215
    D4        2.97978  -0.00363  -0.01025  -0.11612  -0.12726   2.85252
    D5        0.01779   0.00177   0.00687   0.08632   0.09223   0.11002
    D6       -3.09326   0.00105   0.00408   0.05563   0.05901  -3.03425
    D7        3.06835   0.00268   0.00728   0.11585   0.12217  -3.09267
    D8       -0.04270   0.00195   0.00450   0.08516   0.08895   0.04625
    D9       -2.90832  -0.00095   0.00079  -0.03557  -0.03593  -2.94425
   D10        0.21526   0.00153   0.00711   0.04213   0.04944   0.26470
   D11        0.06099   0.00015  -0.00118  -0.00458  -0.00526   0.05573
   D12       -3.05624   0.00035   0.00138   0.00529   0.00735  -3.04890
   D13       -0.28457   0.00029  -0.00069   0.01324   0.01290  -0.27167
   D14        2.88564   0.00199   0.00565   0.08097   0.08654   2.97218
   D15        2.83313   0.00019  -0.00319   0.00407   0.00145   2.83458
   D16       -0.27985   0.00188   0.00316   0.07180   0.07510  -0.20475
   D17        0.23798  -0.00163  -0.00255  -0.05667  -0.05937   0.17861
   D18       -2.93309  -0.00089   0.00021  -0.02701  -0.02732  -2.96041
   D19       -2.92998  -0.00318  -0.00845  -0.11913  -0.12719  -3.05717
   D20        0.18214  -0.00243  -0.00569  -0.08948  -0.09515   0.08699
   D21        2.97977  -0.00063  -0.00408  -0.02399  -0.02752   2.95225
   D22       -0.24643   0.00224   0.00379   0.08512   0.08914  -0.15730
   D23       -0.13334   0.00106   0.00224   0.04346   0.04588  -0.08747
   D24        2.92364   0.00393   0.01011   0.15256   0.16253   3.08617
   D25        3.00574   0.00227   0.00643   0.08822   0.09479   3.10054
   D26       -0.13325   0.00212   0.00530   0.08272   0.08804  -0.04522
   D27       -0.10514   0.00154   0.00361   0.05744   0.06138  -0.04376
   D28        3.03905   0.00139   0.00249   0.05195   0.05463   3.09368
   D29       -0.03013   0.00066   0.00175   0.02391   0.02561  -0.00452
   D30        3.13988  -0.00042  -0.00176  -0.01680  -0.01881   3.12106
   D31        3.10887   0.00080   0.00285   0.02937   0.03242   3.14129
   D32       -0.00431  -0.00028  -0.00067  -0.01134  -0.01201  -0.01631
   D33        0.08291  -0.00193  -0.00501  -0.07154  -0.07668   0.00623
   D34       -3.04911  -0.00225  -0.00587  -0.08481  -0.09073  -3.13985
   D35       -3.08703  -0.00082  -0.00151  -0.03077  -0.03245  -3.11947
   D36        0.06413  -0.00114  -0.00237  -0.04404  -0.04649   0.01763
   D37        0.00210   0.00108   0.00321   0.03641   0.03964   0.04174
   D38       -3.05611  -0.00172  -0.00450  -0.07103  -0.07537  -3.13148
   D39        3.13414   0.00140   0.00410   0.04968   0.05365  -3.09539
   D40        0.07594  -0.00140  -0.00361  -0.05776  -0.06137   0.01457
         Item               Value     Threshold  Converged?
 Maximum Force            0.010237     0.000450     NO 
 RMS     Force            0.002454     0.000300     NO 
 Maximum Displacement     0.463490     0.001800     NO 
 RMS     Displacement     0.103087     0.001200     NO 
 Predicted change in Energy=-3.976795D-03
 GradGradGradGradGradGradGradGradGradGradGradGradGradGradGradGradGradGrad

                          Input orientation:                          
 ---------------------------------------------------------------------
 Center     Atomic      Atomic             Coordinates (Angstroms)
 Number     Number       Type             X           Y           Z
 ---------------------------------------------------------------------
      1          7           0        3.289298    1.916222    0.456735
      2          6           0        4.160627    1.161312    0.119813
      3          6           0        5.185686   -0.040047   -1.785939
      4          6           0        5.183363    0.232778   -0.394308
      5          6           0        6.069338   -0.405129    0.551836
      6          6           0        7.153256   -1.063833   -0.050856
      7          6           0        7.423760   -1.061547   -1.468247
      8          6           0        6.346278   -0.634040   -2.364385
      9          6           0        6.497009   -0.830879   -3.781956
     10          6           0        7.660845   -1.369372   -4.325332
     11          6           0        8.742133   -1.736376   -3.481218
     12          6           0        8.641146   -1.564642   -2.085354
     13          7           0       10.738393   -2.250505   -0.595811
     14          6           0        9.779534   -1.941937   -1.250299
     15          1           0        4.349888    0.242818   -2.441927
     16          1           0        7.849572   -1.661336    0.561395
     17          1           0        5.664480   -0.548968   -4.441762
     18          1           0        7.743484   -1.527330   -5.408398
     19          1           0        9.659549   -2.159238   -3.911456
 ---------------------------------------------------------------------
                    Distance matrix (angstroms):
                    1          2          3          4          5
     1  N    0.000000
     2  C    1.201090   0.000000
     3  C    3.528861   2.475056   0.000000
     4  C    2.673152   1.473936   1.418124   0.000000
     5  C    3.623029   2.506703   2.525731   1.444668   0.000000
     6  C    4.905970   3.733126   2.816023   2.383199   1.404281
     7  C    5.446690   4.255711   2.480598   2.801428   2.519142
     8  C    4.879311   3.764519   1.426324   2.446415   2.938271
     9  C    5.983517   4.965009   2.515763   3.785920   4.375605
    10  C    7.264552   6.198000   3.787087   4.915053   5.220098
    11  C    7.653910   6.508012   4.289500   5.106018   5.018124
    12  C    6.871747   5.689345   3.788699   4.248131   3.861791
    13  N    8.599911   7.444436   6.093856   6.088156   5.150007
    14  C    7.740963   6.563496   5.000753   5.156247   4.401706
    15  H    3.511035   2.727996   1.099496   2.210775   3.512685
    16  H    5.797066   4.665904   3.903184   3.407302   2.178848
    17  H    5.976113   5.098491   2.746205   4.150239   5.012048
    18  H    8.130043   7.115250   4.677237   5.898584   6.291779
    19  H    8.733302   7.583887   5.387415   6.174812   5.990616
                    6          7          8          9         10
     6  C    0.000000
     7  C    1.442974   0.000000
     8  C    2.487639   1.465194   0.000000
     9  C    3.795528   2.503064   1.439088   0.000000
    10  C    4.315338   2.883384   2.472674   1.392748   0.000000
    11  C    3.839821   2.499111   2.864015   2.439457   1.420001
    12  C    2.569787   1.454632   2.492047   2.830935   2.452881
    13  N    3.815544   3.627885   5.003147   5.491466   4.914979
    14  C    3.017792   2.524333   3.839144   4.291702   3.777896
    15  H    3.909403   3.478234   2.181849   2.749297   4.136280
    16  H    1.103049   2.158821   3.446073   4.624261   4.899078
    17  H    4.664933   3.492793   2.188055   1.099055   2.161502
    18  H    5.409848   3.980449   3.466435   2.164268   1.097640
    19  H    4.731348   3.488976   3.961998   3.432633   2.188607
                   11         12         13         14         15
    11  C    0.000000
    12  C    1.410010   0.000000
    13  N    3.546118   2.662252   0.000000
    14  C    2.468897   1.461367   1.201241   0.000000
    15  H    4.928402   4.670006   7.101957   5.972787   0.000000
    16  H    4.140654   2.764275   3.167259   2.661903   4.989342
    17  H    3.435772   3.929987   6.590232   5.390684   2.520797
    18  H    2.180602   3.442356   5.714320   4.648353   4.842507
    19  H    1.097985   2.173785   3.487941   2.672709   6.010149
                   16         17         18         19
    16  H    0.000000
    17  H    5.571676   0.000000
    18  H    5.972240   2.492756   0.000000
    19  H    4.850806   4.339905   2.512260   0.000000
 Stoichiometry    C12H5N2(1-)
 Framework group  C1[X(C12H5N2)]
 Deg. of freedom    51
 Full point group                 C1      NOp   1
 Largest Abelian subgroup         C1      NOp   1
 Largest concise Abelian subgroup C1      NOp   1
                         Standard orientation:                         
 ---------------------------------------------------------------------
 Center     Atomic      Atomic             Coordinates (Angstroms)
 Number     Number       Type             X           Y           Z
 ---------------------------------------------------------------------
      1          7           0        4.870717   -0.273486   -0.443916
      2          6           0        3.695056   -0.344461   -0.208541
      3          6           0        1.617833    0.943917    0.180217
      4          6           0        2.252332   -0.321293    0.092289
      5          6           0        1.586136   -1.575353    0.357960
      6          6           0        0.185855   -1.472366    0.382703
      7          6           0       -0.548452   -0.262145    0.102819
      8          6           0        0.194113    1.000878    0.115593
      9          6           0       -0.534986    2.240613    0.066140
     10          6           0       -1.923002    2.268191   -0.045202
     11          6           0       -2.659744    1.056505   -0.118903
     12          6           0       -1.990380   -0.183615   -0.072195
     13          7           0       -3.461199   -2.395204   -0.254274
     14          6           0       -2.781383   -1.408987   -0.163696
     15          1           0        2.185652    1.883698    0.237522
     16          1           0       -0.429856   -2.343871    0.662161
     17          1           0        0.028356    3.182635    0.122388
     18          1           0       -2.457211    3.226923   -0.061534
     19          1           0       -3.753827    1.080136   -0.208307
 ---------------------------------------------------------------------
 Rotational constants (GHZ):      1.3919191      0.4600553      0.3502988
 Standard basis: STO-3G (5D, 7F)
 There are    75 symmetry adapted cartesian basis functions of A   symmetry.
 There are    75 symmetry adapted basis functions of A   symmetry.
    75 basis functions,   225 primitive gaussians,    75 cartesian basis functions
    46 alpha electrons       46 beta electrons
       nuclear repulsion energy       693.1643012455 Hartrees.
 NAtoms=   19 NActive=   19 NUniq=   19 SFac= 1.00D+00 NAtFMM=   60 NAOKFM=F Big=F
 Integral buffers will be    131072 words long.
 Raffenetti 2 integral format.
 Two-electron integral symmetry is turned on.
 One-electron integrals computed using PRISM.
 NBasis=    75 RedAO= T EigKep=  1.76D-01  NBF=    75
 NBsUse=    75 1.00D-06 EigRej= -1.00D+00 NBFU=    75
 Initial guess from the checkpoint file:  "/tmp/bnp.472618.sequoia/Gau-14656.chk"
 B after Tr=     0.000000    0.000000    0.000000
         Rot=    0.999948   -0.005919   -0.000128    0.008326 Ang=  -1.17 deg.
 ExpMin= 1.69D-01 ExpMax= 9.91D+01 ExpMxC= 9.91D+01 IAcc=1 IRadAn=         1 AccDes= 0.00D+00
 Harris functional with IExCor=  402 and IRadAn=       1 diagonalized for initial guess.
 HarFok:  IExCor=  402 AccDes= 0.00D+00 IRadAn=         1 IDoV= 1 UseB2=F ITyADJ=14
 ICtDFT=  3500011 ScaDFX=  1.000000  1.000000  1.000000  1.000000
 FoFCou: FMM=F IPFlag=           0 FMFlag=      100000 FMFlg1=           0
         NFxFlg=           0 DoJE=T BraDBF=F KetDBF=T FulRan=T
         wScrn=  0.000000 ICntrl=     500 IOpCl=  0 I1Cent=   200000004 NGrid=           0
         NMat0=    1 NMatS0=      1 NMatT0=    0 NMatD0=    1 NMtDS0=    0 NMtDT0=    0
 Petite list used in FoFCou.
 Keep R1 ints in memory in canonical form, NReq=4993994.
 Requested convergence on RMS density matrix=1.00D-08 within 128 cycles.
 Requested convergence on MAX density matrix=1.00D-06.
 Requested convergence on             energy=1.00D-06.
 No special actions if energy rises.
 Integral accuracy reduced to 1.0D-05 until final iterations.
 Initial convergence to 1.0D-05 achieved.  Increase integral accuracy.
 SCF Done:  E(RB3LYP) =  -562.514873765     A.U. after   18 cycles
            NFock= 18  Conv=0.50D-08     -V/T= 2.0142
 Calling FoFJK, ICntrl=      2127 FMM=F ISym2X=0 I1Cent= 0 IOpClX= 0 NMat=1 NMatS=1 NMatT=0.
 ***** Axes restored to original set *****
 -------------------------------------------------------------------
 Center     Atomic                   Forces (Hartrees/Bohr)
 Number     Number              X              Y              Z
 -------------------------------------------------------------------
      1        7           0.002489583   -0.001536029    0.002406928
      2        6          -0.005325754    0.003440533   -0.006201634
      3        6          -0.002592266    0.003897498    0.002664029
      4        6          -0.001209695   -0.002206855   -0.001135970
      5        6           0.002607809   -0.001560032    0.004893506
      6        6           0.001664612    0.000489153   -0.002543947
      7        6          -0.000608076    0.000241730   -0.000438363
      8        6           0.003257258   -0.002768955   -0.001838558
      9        6          -0.000685282    0.000177781    0.001315537
     10        6          -0.000153590   -0.001121192   -0.000697637
     11        6           0.000552404    0.000879005    0.000503571
     12        6          -0.001789910   -0.001202916    0.000169614
     13        7          -0.001926266    0.000372952   -0.001313681
     14        6           0.002630839   -0.000661651    0.001684466
     15        1           0.000047004   -0.000284645    0.000223147
     16        1           0.000709363    0.000537463   -0.000006493
     17        1           0.000214846    0.000758822    0.000156416
     18        1           0.000504423    0.000772039    0.000141213
     19        1          -0.000387303   -0.000224700    0.000017856
 -------------------------------------------------------------------
 Cartesian Forces:  Max     0.006201634 RMS     0.001977985

 GradGradGradGradGradGradGradGradGradGradGradGradGradGradGradGradGradGrad
 Berny optimization.
 Using GEDIIS/GDIIS optimizer.
 FormGI is forming the generalized inverse of G from B-inverse, IUseBI=4.
 Internal  Forces:  Max     0.007121063 RMS     0.001293907
 Search for a local minimum.
 Step number   3 out of a maximum of  102
 All quantities printed in internal units (Hartrees-Bohrs-Radians)
 Mixed Optimization -- RFO/linear search
 Update second derivatives using D2CorX and points    2    3
 DE= -3.46D-03 DEPred=-3.98D-03 R= 8.71D-01
 TightC=F SS=  1.41D+00  RLast= 4.73D-01 DXNew= 8.4853D-01 1.4205D+00
 Trust test= 8.71D-01 RLast= 4.73D-01 DXMaxT set to 8.49D-01
 ITU=  1  1  0
 Use linear search instead of GDIIS.
     Eigenvalues ---    0.01202   0.01741   0.01933   0.01972   0.01979
     Eigenvalues ---    0.02015   0.02044   0.02086   0.02121   0.02135
     Eigenvalues ---    0.02142   0.02161   0.02168   0.02179   0.02273
     Eigenvalues ---    0.03870   0.04870   0.04916   0.15476   0.15979
     Eigenvalues ---    0.15999   0.15999   0.16013   0.20858   0.22084
     Eigenvalues ---    0.23004   0.23535   0.24421   0.24770   0.24984
     Eigenvalues ---    0.25280   0.34767   0.34881   0.34921   0.35015
     Eigenvalues ---    0.35062   0.38968   0.39671   0.40367   0.40641
     Eigenvalues ---    0.41448   0.43148   0.44009   0.44654   0.45329
     Eigenvalues ---    0.45507   0.46701   0.46940   0.50367   1.27368
     Eigenvalues ---    1.30217
 RFO step:  Lambda=-3.07342126D-03 EMin= 1.20164690D-02
 Quartic linear search produced a step of -0.00972.
 Iteration  1 RMS(Cart)=  0.06825341 RMS(Int)=  0.01077373
 Iteration  2 RMS(Cart)=  0.02143650 RMS(Int)=  0.00109233
 Iteration  3 RMS(Cart)=  0.00106832 RMS(Int)=  0.00015707
 Iteration  4 RMS(Cart)=  0.00000109 RMS(Int)=  0.00015707
 Iteration  5 RMS(Cart)=  0.00000000 RMS(Int)=  0.00015707
 Variable       Old X    -DE/DX   Delta X   Delta X   Delta X     New X
                                 (Linear)    (Quad)   (Total)
    R1        2.26973  -0.00210  -0.00001  -0.00246  -0.00247   2.26726
    R2        2.78534   0.00184  -0.00013   0.00921   0.00908   2.79442
    R3        2.67987  -0.00217   0.00012  -0.01135  -0.01112   2.66875
    R4        2.69536   0.00302   0.00001   0.00520   0.00516   2.70052
    R5        2.07775  -0.00024   0.00001  -0.00142  -0.00141   2.07634
    R6        2.73003   0.00544  -0.00017   0.01776   0.01774   2.74777
    R7        2.65371   0.00210  -0.00002   0.00483   0.00486   2.65857
    R8        2.72683  -0.00094  -0.00002  -0.00314  -0.00324   2.72358
    R9        2.08446   0.00015  -0.00003   0.00126   0.00123   2.08569
   R10        2.76882  -0.00094  -0.00001  -0.00419  -0.00450   2.76431
   R11        2.74886  -0.00078   0.00001  -0.00385  -0.00389   2.74496
   R12        2.71948  -0.00124  -0.00001  -0.00356  -0.00366   2.71583
   R13        2.63191   0.00050   0.00012  -0.00503  -0.00485   2.62706
   R14        2.07691  -0.00006  -0.00002   0.00025   0.00024   2.07715
   R15        2.68341   0.00009  -0.00002  -0.00015  -0.00002   2.68340
   R16        2.07424  -0.00021  -0.00001  -0.00063  -0.00064   2.07360
   R17        2.66453  -0.00034   0.00010  -0.00632  -0.00614   2.65840
   R18        2.07489  -0.00024  -0.00001  -0.00077  -0.00077   2.07412
   R19        2.76158   0.00084  -0.00003   0.00274   0.00270   2.76429
   R20        2.27002  -0.00235  -0.00001  -0.00268  -0.00270   2.26732
    A1        2.07080   0.00020   0.00010  -0.00071  -0.00098   2.06981
    A2        2.13500  -0.00016  -0.00013   0.00358   0.00341   2.13841
    A3        2.07570  -0.00002   0.00001  -0.00109  -0.00113   2.07457
    A4        2.05401  -0.00318   0.00024  -0.02404  -0.02381   2.03019
    A5        2.06606   0.00293   0.00003   0.00855   0.00857   2.07463
    A6        2.16124   0.00030  -0.00025   0.01572   0.01551   2.17675
    A7        1.98167  -0.00165   0.00046  -0.02366  -0.02323   1.95843
    A8        2.17187   0.00085  -0.00028   0.01861   0.01806   2.18993
    A9        2.09800  -0.00019  -0.00010   0.00311   0.00313   2.10113
   A10        2.01278  -0.00066   0.00039  -0.02189  -0.02137   1.99140
   A11        2.05260   0.00078   0.00002   0.00239   0.00216   2.05476
   A12        2.18102  -0.00094   0.00001  -0.00493  -0.00443   2.17660
   A13        2.04529   0.00018   0.00001   0.00054   0.00010   2.04539
   A14        2.06218  -0.00002   0.00005  -0.00147  -0.00157   2.06061
   A15        2.14323  -0.00038  -0.00005   0.00025   0.00077   2.14400
   A16        2.07778   0.00040   0.00000   0.00121   0.00079   2.07857
   A17        2.12319  -0.00010  -0.00006   0.00219   0.00167   2.12486
   A18        2.06796  -0.00019   0.00015  -0.00826  -0.00791   2.06005
   A19        2.09203   0.00030  -0.00010   0.00612   0.00621   2.09824
   A20        2.09939  -0.00040   0.00000  -0.00164  -0.00184   2.09755
   A21        2.09846   0.00040  -0.00004   0.00418   0.00423   2.10270
   A22        2.08522   0.00000   0.00004  -0.00263  -0.00248   2.08273
   A23        2.09725   0.00007   0.00001  -0.00014  -0.00031   2.09694
   A24        2.09769  -0.00016  -0.00004   0.00065   0.00070   2.09839
   A25        2.08824   0.00009   0.00002  -0.00053  -0.00042   2.08782
   A26        2.12004  -0.00010  -0.00007   0.00270   0.00211   2.12215
   A27        2.09303   0.00029   0.00003  -0.00141  -0.00131   2.09171
   A28        2.06969  -0.00019   0.00001  -0.00220  -0.00213   2.06756
   A29        3.06640   0.00712   0.00105   0.29214   0.29319   3.35959
   A30        3.17429   0.00002   0.00003  -0.00238  -0.00235   3.17194
   A31        3.14581   0.00060   0.00039   0.00656   0.00694   3.15276
   A32        3.14472  -0.00052   0.00008  -0.01177  -0.01169   3.13303
    D1        2.85616   0.00005   0.00012  -0.00088  -0.00071   2.85545
    D2       -0.35236   0.00120   0.00094   0.00334   0.00434  -0.34801
    D3       -0.22215  -0.00047   0.00041  -0.03403  -0.03359  -0.25574
    D4        2.85252   0.00068   0.00124  -0.02980  -0.02853   2.82399
    D5        0.11002  -0.00026  -0.00090   0.02704   0.02625   0.13627
    D6       -3.03425   0.00002  -0.00057   0.02553   0.02506  -3.00919
    D7       -3.09267   0.00024  -0.00119   0.05921   0.05806  -3.03460
    D8        0.04625   0.00051  -0.00086   0.05770   0.05687   0.10312
    D9       -2.94425   0.00004   0.00035  -0.01127  -0.01084  -2.95509
   D10        0.26470  -0.00090  -0.00048  -0.01436  -0.01488   0.24982
   D11        0.05573  -0.00015   0.00005  -0.00753  -0.00749   0.04824
   D12       -3.04890  -0.00006  -0.00007  -0.00130  -0.00128  -3.05018
   D13       -0.27167   0.00092  -0.00013   0.04078   0.04072  -0.23095
   D14        2.97218   0.00077  -0.00084   0.06461   0.06387   3.03606
   D15        2.83458   0.00085  -0.00001   0.03526   0.03527   2.86985
   D16       -0.20475   0.00069  -0.00073   0.05908   0.05842  -0.14633
   D17        0.17861  -0.00053   0.00058  -0.05035  -0.04970   0.12891
[...]
 ! D19   D(12,7,8,3)          -178.0608         -DE/DX =    0.0                 !
 ! D20   D(12,7,8,9)             1.3837         -DE/DX =    0.0                 !
 ! D21   D(6,7,12,11)          173.2701         -DE/DX =    0.0                 !
 ! D22   D(6,7,12,14)           -5.835          -DE/DX =    0.0                 !
 ! D23   D(8,7,12,11)           -2.0195         -DE/DX =    0.0                 !
 ! D24   D(8,7,12,14)          178.8754         -DE/DX =    0.0                 !
 ! D25   D(3,8,9,10)           178.9851         -DE/DX =    0.0                 !
 ! D26   D(3,8,9,17)            -0.7033         -DE/DX =    0.0                 !
 ! D27   D(7,8,9,10)            -0.4288         -DE/DX =    0.0                 !
 ! D28   D(7,8,9,17)           179.8828         -DE/DX =    0.0                 !
 ! D29   D(8,9,10,11)            0.011          -DE/DX =    0.0                 !
 ! D30   D(8,9,10,18)          179.8492         -DE/DX =    0.0                 !
 ! D31   D(17,9,10,11)         179.6947         -DE/DX =    0.0                 !
 ! D32   D(17,9,10,18)          -0.467          -DE/DX =    0.0                 !
 ! D33   D(9,10,11,12)          -0.6271         -DE/DX =    0.0                 !
 ! D34   D(9,10,11,19)         179.0875         -DE/DX =    0.0                 !
 ! D35   D(18,10,11,12)        179.533          -DE/DX =    0.0                 !
 ! D36   D(18,10,11,19)         -0.7525         -DE/DX =    0.0                 !
 ! D37   D(10,11,12,7)           1.6746         -DE/DX =    0.0                 !
 ! D38   D(10,11,12,14)       -179.2039         -DE/DX =    0.0                 !
 ! D39   D(19,11,12,7)        -178.0409         -DE/DX =    0.0                 !
 ! D40   D(19,11,12,14)          1.0806         -DE/DX =    0.0                 !
 --------------------------------------------------------------------------------
 GradGradGradGradGradGradGradGradGradGradGradGradGradGradGradGradGradGrad

                          Input orientation:                          
 ---------------------------------------------------------------------
 Center     Atomic      Atomic             Coordinates (Angstroms)
 Number     Number       Type             X           Y           Z
 ---------------------------------------------------------------------
      1          7           0        3.167432    1.750406    0.510108
      2          6           0        4.068254    1.073818    0.097541
      3          6           0        5.205672   -0.006343   -1.791064
      4          6           0        5.177454    0.230517   -0.401752
      5          6           0        6.109798   -0.322452    0.587200
      6          6           0        7.208488   -0.945771   -0.055258
      7          6           0        7.433686   -1.030842   -1.471949
      8          6           0        6.365315   -0.610377   -2.374665
      9          6           0        6.513748   -0.800823   -3.789429
     10          6           0        7.663051   -1.372945   -4.330663
     11          6           0        8.722586   -1.783395   -3.476796
     12          6           0        8.626484   -1.604394   -2.084136
     13          7           0       10.697209   -2.386997   -0.604774
     14          6           0        9.751371   -2.027378   -1.250380
     15          1           0        4.375486    0.285874   -2.450624
     16          1           0        7.975480   -1.451179    0.557338
     17          1           0        5.696489   -0.478822   -4.450227
     18          1           0        7.758140   -1.513087   -5.414629
     19          1           0        9.621497   -2.247862   -3.903311
 ---------------------------------------------------------------------
                    Distance matrix (angstroms):
                    1          2          3          4          5
     1  N    0.000000
     2  C    1.199776   0.000000
     3  C    3.540619   2.455055   0.000000
     4  C    2.679877   1.480126   1.409641   0.000000
     5  C    3.600029   2.521357   2.563886   1.467333   0.000000
     6  C    4.890720   3.736731   2.811907   2.372512   1.417180
     7  C    5.464871   4.268375   2.472949   2.797666   2.548449
     8  C    4.911382   3.771579   1.431859   2.451633   2.986776
     9  C    6.016030   4.960167   2.517086   3.784931   4.421187
    10  C    7.307461   6.206304   3.788915   4.917889   5.263222
    11  C    7.696940   6.527048   4.285824   5.106829   5.047482
    12  C    6.912745   5.719265   3.787032   4.253602   3.887560
    13  N    8.663637   7.510894   6.101784   6.112307   5.169863
    14  C    7.792254   6.613027   5.004028   5.170975   4.420919
    15  H    3.517127   2.684845   1.099827   2.200930   3.550532
    16  H    5.776652   4.674767   3.908245   3.402485   2.180753
    17  H    5.997542   5.073858   2.745048   4.142791   5.056773
    18  H    8.174809   7.119786   4.681409   5.901613   6.336924
    19  H    8.781764   7.607818   5.383819   6.176796   6.016970
                    6          7          8          9         10
     6  C    0.000000
     7  C    1.436999   0.000000
     8  C    2.490598   1.460514   0.000000
     9  C    3.801014   2.503978   1.435221   0.000000
    10  C    4.320671   2.888233   2.468108   1.393253   0.000000
    11  C    3.834192   2.499401   2.854363   2.437653   1.421328
    12  C    2.561414   1.458253   2.487038   2.831502   2.455332
    13  N    3.814482   3.638919   5.005416   5.491750   4.910872
    14  C    3.010722   2.532556   3.838917   4.293415   3.778559
    15  H    3.909044   3.470465   2.183679   2.746903   4.134527
    16  H    1.104078   2.142016   3.449089   4.631847   4.898601
    17  H    4.671182   3.491807   2.184627   1.099205   2.163589
    18  H    5.417271   3.985292   3.463558   2.167281   1.097116
    19  H    4.724994   3.489868   3.952321   3.430014   2.187149
                   11         12         13         14         15
    11  C    0.000000
    12  C    1.407401   0.000000
    13  N    3.537228   2.662495   0.000000
    14  C    2.464722   1.462681   1.200309   0.000000
    15  H    4.922619   4.666734   7.107431   5.974266   0.000000
    16  H    4.116160   2.724824   3.103879   2.598776   5.002514
    17  H    3.436094   3.930670   6.590587   5.392506   2.515596
    18  H    2.181381   3.443043   5.704082   4.645260   4.843959
    19  H    1.098038   2.171060   3.472299   2.665244   6.004228
                   16         17         18         19
    16  H    0.000000
    17  H    5.587038   0.000000
    18  H    5.976242   2.500036   0.000000
    19  H    4.820940   4.339851   2.509199   0.000000
 Stoichiometry    C12H5N2(1-)
 Framework group  C1[X(C12H5N2)]
 Deg. of freedom    51
 Full point group                 C1      NOp   1
 Largest Abelian subgroup         C1      NOp   1
 Largest concise Abelian subgroup C1      NOp   1
                         Standard orientation:                         
 ---------------------------------------------------------------------
 Center     Atomic      Atomic             Coordinates (Angstroms)
 Number     Number       Type             X           Y           Z
 ---------------------------------------------------------------------
      1          7           0        4.910293   -0.286587   -0.277260
      2          6           0        3.719797   -0.294642   -0.128537
      3          6           0        1.614090    0.941850    0.125200
      4          6           0        2.252431   -0.313507    0.064474
      5          6           0        1.604511   -1.620007    0.226731
      6          6           0        0.193973   -1.483409    0.215779
      7          6           0       -0.544723   -0.262030    0.049867
      8          6           0        0.184420    1.003201    0.075219
      9          6           0       -0.539488    2.241913    0.037687
     10          6           0       -1.930718    2.270609   -0.031688
     11          6           0       -2.665949    1.054720   -0.066671
     12          6           0       -1.997783   -0.183771   -0.044976
     13          7           0       -3.494897   -2.383013   -0.149222
     14          6           0       -2.799087   -1.406170   -0.100560
     15          1           0        2.180197    1.883225    0.179550
     16          1           0       -0.435490   -2.376517    0.374281
     17          1           0        0.029299    3.182258    0.059672
     18          1           0       -2.467608    3.227044   -0.057078
     19          1           0       -3.763014    1.078652   -0.106205
 ---------------------------------------------------------------------
 Rotational constants (GHZ):      1.4104123      0.4567570      0.3466865

 **********************************************************************

            Population analysis using the SCF density.

 **********************************************************************

 Orbital symmetries:
       Occupied  (A) (A) (A) (A) (A) (A) (A) (A) (A) (A) (A) (A)
                 (A) (A) (A) (A) (A) (A) (A) (A) (A) (A) (A) (A)
                 (A) (A) (A) (A) (A) (A) (A) (A) (A) (A) (A) (A)
                 (A) (A) (A) (A) (A) (A) (A) (A) (A) (A)
       Virtual   (A) (A) (A) (A) (A) (A) (A) (A) (A) (A) (A) (A)
                 (A) (A) (A) (A) (A) (A) (A) (A) (A) (A) (A) (A)
                 (A) (A) (A) (A) (A)
 The electronic state is 1-A.
 Alpha  occ. eigenvalues --  -13.98733 -13.94769  -9.90203  -9.89266  -9.88459
 Alpha  occ. eigenvalues --   -9.87755  -9.87567  -9.86821  -9.86720  -9.85407
 Alpha  occ. eigenvalues --   -9.84826  -9.84517  -9.79594  -9.68889  -0.72223
 Alpha  occ. eigenvalues --   -0.68973  -0.67589  -0.61604  -0.58906  -0.54394
 Alpha  occ. eigenvalues --   -0.51046  -0.45602  -0.41850  -0.40636  -0.34663
 Alpha  occ. eigenvalues --   -0.32973  -0.30109  -0.27794  -0.24939  -0.23176
 Alpha  occ. eigenvalues --   -0.22008  -0.20634  -0.19359  -0.17224  -0.16152
 Alpha  occ. eigenvalues --   -0.15211  -0.14170  -0.13459  -0.13072  -0.11223
 Alpha  occ. eigenvalues --   -0.10058  -0.08851  -0.07365  -0.01817   0.01031
 Alpha  occ. eigenvalues --    0.10121
 Alpha virt. eigenvalues --    0.16181   0.22171   0.24175   0.26203   0.29965
 Alpha virt. eigenvalues --    0.31464   0.32306   0.38335   0.43674   0.44998
 Alpha virt. eigenvalues --    0.47070   0.49824   0.52419   0.55781   0.57081
 Alpha virt. eigenvalues --    0.58161   0.60759   0.62699   0.65353   0.69790
 Alpha virt. eigenvalues --    0.71920   0.74778   0.78462   0.81941   0.84999
 Alpha virt. eigenvalues --    0.92249   0.92848   1.06839   1.09277
          Condensed to atoms (all electrons):
               1          2          3          4          5          6
     1  N    6.619784   0.660209  -0.000027  -0.010615   0.000035  -0.000002
     2  C    0.660209   4.969047  -0.038277   0.400257  -0.032373   0.001333
     3  C   -0.000027  -0.038277   4.876575   0.494795  -0.018921  -0.011645
     4  C   -0.010615   0.400257   0.494795   4.857049   0.407333  -0.030378
     5  C    0.000035  -0.032373  -0.018921   0.407333   5.416637   0.468571
     6  C   -0.000002   0.001333  -0.011645  -0.030378   0.468571   4.928407
     7  C    0.000000   0.000004  -0.029183  -0.012922  -0.018895   0.462459
     8  C   -0.000001   0.000936   0.475647  -0.029930  -0.006693  -0.029515
     9  C    0.000000  -0.000006  -0.028212   0.000738   0.000011   0.000744
    10  C    0.000000   0.000000   0.000756  -0.000008   0.000000   0.000033
    11  C    0.000000   0.000000   0.000031   0.000000  -0.000006   0.000592
    12  C    0.000000   0.000000   0.000821   0.000050   0.000636  -0.025114
    13  N    0.000000   0.000000   0.000000   0.000000   0.000000  -0.000094
    14  C    0.000000   0.000000  -0.000005   0.000001   0.000010  -0.003589
    15  H    0.000050  -0.003266   0.381696  -0.023142   0.000972   0.000077
    16  H    0.000000  -0.000012   0.000016   0.002144  -0.031795   0.381260
    17  H    0.000000  -0.000001  -0.003381   0.000016   0.000000  -0.000016
    18  H    0.000000   0.000000  -0.000016   0.000000   0.000000   0.000000
    19  H    0.000000   0.000000   0.000001   0.000000   0.000000  -0.000014
               7          8          9         10         11         12
     1  N    0.000000  -0.000001   0.000000   0.000000   0.000000   0.000000
     2  C    0.000004   0.000936  -0.000006   0.000000   0.000000   0.000000
     3  C   -0.029183   0.475647  -0.028212   0.000756   0.000031   0.000821
     4  C   -0.012922  -0.029930   0.000738  -0.000008   0.000000   0.000050
     5  C   -0.018895  -0.006693   0.000011   0.000000  -0.000006   0.000636
     6  C    0.462459  -0.029515   0.000744   0.000033   0.000592  -0.025114
     7  C    4.826672   0.450230  -0.024972  -0.008049  -0.026255   0.449293
     8  C    0.450230   4.805117   0.471832  -0.027818  -0.009059  -0.027017
     9  C   -0.024972   0.471832   4.830162   0.518221  -0.029526  -0.009739
    10  C   -0.008049  -0.027818   0.518221   4.831215   0.483337  -0.028806
    11  C   -0.026255  -0.009059  -0.029526   0.483337   4.832927   0.504724
    12  C    0.449293  -0.027017  -0.009739  -0.028806   0.504724   4.786708
    13  N    0.000035  -0.000001   0.000000  -0.000001  -0.000189  -0.010739
    14  C   -0.027037   0.000773   0.000013   0.000907  -0.031570   0.418662
    15  H    0.001210  -0.026465  -0.003426   0.000013  -0.000001  -0.000015
    16  H   -0.034940   0.001296  -0.000020  -0.000001   0.000016  -0.003949
    17  H    0.001219  -0.025117   0.385399  -0.026069   0.001432   0.000027
    18  H    0.000020   0.001332  -0.025404   0.388212  -0.025481   0.001309
    19  H    0.001179   0.000030   0.001357  -0.024749   0.387030  -0.025245
              13         14         15         16         17         18
     1  N    0.000000   0.000000   0.000050   0.000000   0.000000   0.000000
     2  C    0.000000   0.000000  -0.003266  -0.000012  -0.000001   0.000000
     3  C    0.000000  -0.000005   0.381696   0.000016  -0.003381  -0.000016
     4  C    0.000000   0.000001  -0.023142   0.002144   0.000016   0.000000
     5  C    0.000000   0.000010   0.000972  -0.031795   0.000000   0.000000
     6  C   -0.000094  -0.003589   0.000077   0.381260  -0.000016   0.000000
     7  C    0.000035  -0.027037   0.001210  -0.034940   0.001219   0.000020
     8  C   -0.000001   0.000773  -0.026465   0.001296  -0.025117   0.001332
     9  C    0.000000   0.000013  -0.003426  -0.000020   0.385399  -0.025404
    10  C   -0.000001   0.000907   0.000013  -0.000001  -0.026069   0.388212
    11  C   -0.000189  -0.031570  -0.000001   0.000016   0.001432  -0.025481
    12  C   -0.010739   0.418662  -0.000015  -0.003949   0.000027   0.001309
    13  N    6.589799   0.659848   0.000000  -0.000268   0.000000   0.000000
    14  C    0.659848   4.931349   0.000000   0.002163   0.000001  -0.000017
    15  H    0.000000   0.000000   0.624120   0.000003   0.001019  -0.000001
    16  H   -0.000268   0.002163   0.000003   0.653555   0.000000   0.000000
    17  H    0.000000   0.000001   0.001019   0.000000   0.612491  -0.003734
    18  H    0.000000  -0.000017  -0.000001   0.000000  -0.003734   0.614616
    19  H    0.000063  -0.003765   0.000000   0.000000  -0.000034  -0.003409
              19
     1  N    0.000000
     2  C    0.000000
     3  C    0.000001
     4  C    0.000000
     5  C    0.000000
     6  C   -0.000014
     7  C    0.001179
     8  C    0.000030
     9  C    0.001357
    10  C   -0.024749
    11  C    0.387030
    12  C   -0.025245
    13  N    0.000063
    14  C   -0.003765
    15  H    0.000000
    16  H    0.000000
    17  H   -0.000034
    18  H   -0.003409
    19  H    0.606767
 Mulliken charges:
               1
     1  N   -0.269434
     2  C    0.042149
     3  C   -0.100671
     4  C   -0.055389
     5  C   -0.185521
     6  C   -0.143108
     7  C   -0.010070
     8  C   -0.025575
     9  C   -0.087173
    10  C   -0.107194
    11  C   -0.088003
    12  C   -0.031607
    13  N   -0.238454
    14  C    0.052256
    15  H    0.047154
    16  H    0.030532
    17  H    0.056747
    18  H    0.052572
    19  H    0.060789
 Sum of Mulliken charges =  -1.00000
 Mulliken charges with hydrogens summed into heavy atoms:
               1
     1  N   -0.269434
     2  C    0.042149
     3  C   -0.053517
     4  C   -0.055389
     5  C   -0.185521
     6  C   -0.112576
     7  C   -0.010070
     8  C   -0.025575
     9  C   -0.030426
    10  C   -0.054622
    11  C   -0.027214
    12  C   -0.031607
    13  N   -0.238454
    14  C    0.052256
 Electronic spatial extent (au):  <R**2>=           2926.3052
 Charge=             -1.0000 electrons
 Dipole moment (field-independent basis, Debye):
    X=             -4.8211    Y=              5.9329    Z=              0.0733  Tot=              7.6451
 Quadrupole moment (field-independent basis, Debye-Ang):
   XX=           -127.9119   YY=            -89.3916   ZZ=            -74.6014
   XY=             -2.0661   XZ=              0.8028   YZ=              0.4911
 Traceless Quadrupole moment (field-independent basis, Debye-Ang):
   XX=            -30.6103   YY=              7.9101   ZZ=             22.7002
   XY=             -2.0661   XZ=              0.8028   YZ=              0.4911
 Octapole moment (field-independent basis, Debye-Ang**2):
  XXX=           -145.2798  YYY=             40.8294  ZZZ=             -1.3496  XYY=             20.8129
  XXY=             64.3476  XXZ=             12.6768  XZZ=              0.9356  YZZ=             -2.7575
  YYZ=             -1.0912  XYZ=              3.7265
 Hexadecapole moment (field-independent basis, Debye-Ang**3):
 XXXX=          -3883.5374 YYYY=          -1048.9875 ZZZZ=            -67.3649 XXXY=            -81.6221
 XXXZ=             52.0713 YYYX=            -40.6517 YYYZ=              1.9722 ZZZX=             -2.2423
 ZZZY=              1.6042 XXYY=           -749.1430 XXZZ=           -461.4946 YYZZ=           -178.7323
 XXYZ=             -6.8316 YYXZ=            -10.1938 ZZXY=              8.0549
 N-N= 6.924034957132D+02 E-N=-2.706925951401D+03  KE= 5.546874156748D+02
 1\1\GINC-N007\FOpt\RB3LYP\STO-3G\C12H5N2(1-)\R2532\15-Jun-2021\0\\#N B
 3LYP/STO-3G OPT\\2Naph\\-1,1\N,3.1674315723,1.7504063661,0.5101075779\
 C,4.0682537296,1.0738184936,0.097540687\C,5.2056721501,-0.0063430495,-
 1.7910640081\C,5.1774537411,0.2305174311,-0.4017516982\C,6.1097981167,
 -0.3224521442,0.5872003214\C,7.2084880183,-0.9457705181,-0.055257905\C
 ,7.4336861074,-1.0308415952,-1.4719494821\C,6.3653153453,-0.6103768974
 ,-2.3746645123\C,6.5137482519,-0.8008229568,-3.7894289225\C,7.66305087
 18,-1.3729451776,-4.3306631687\C,8.7225858452,-1.7833949725,-3.4767957
 66\C,8.6264837796,-1.6043940482,-2.0841362052\N,10.6972087511,-2.38699
 66205,-0.6047736569\C,9.7513708711,-2.0273782034,-1.2503798072\H,4.375
 4862614,0.2858740617,-2.450623895\H,7.9754801829,-1.4511787488,0.55733
 80401\H,5.6964891639,-0.4788221778,-4.4502273405\H,7.7581398674,-1.513
 087086,-5.4146292905\H,9.6214973731,-2.2478621566,-3.9033109681\\Versi
 on=ES64L-G09RevD.01\State=1-A\HF=-562.5159552\RMSD=5.348e-09\RMSF=1.02
 3e-05\Dipole=0.6663974,-0.6904992,-2.8506307\Quadrupole=-11.0350953,7.
 8503872,3.1847082,15.8206633,7.0359344,-4.9951886\PG=C01 [X(C12H5N2)]\
 \@


 WE HAVE SEEN THAT MAN ON THE AVERAGE DOES NOT LIVE ABOVE
 TWO-AND-TWENTY YEARS.  DURING THESE TWO AND TWENTY
 YEARS HE IS LIABLE TO TWO AND TWENTY THOUSAND EVILS,
 MANY OF WHICH ARE INCURABLE.  YET EVEN IN THIS DREADFUL STATE
 MEN STILL STRUT AND POSE ON THE STAGE OF LIFE.
 THEY MAKE LOVE AT THE RISK OF DESTRUCTION,
 INTRIGUE, CARRY ON WAR, AND FORM PROJECTS, JUST AS IF THEY
 WERE TO LIVE IN LUXURY AND HAPPINESS FOR A THOUSAND
 AGES.

                                              -- VOLTAIRE
 Job cpu time:       0 days  0 hours  5 minutes 56.6 seconds.
 File lengths (MBytes):  RWF=      5 Int=      0 D2E=      0 Chk=      2 Scr=      1
 Normal termination of Gaussian 09 at Tue Jun 15 11:14:51 2021.
