 Entering Gaussian System, Link 0=/usr/local/apps//g09/g09
 Input=27.com
 Output=27.out
 Initial command:
 /usr/local/apps//g09/l1.exe "/tmp/bnp.472622.sequoia/Gau-7368.inp" -scrdir="/tmp/bnp.472622.sequoia/"
 Entering Link 1 = /usr/local/apps//g09/l1.exe PID=      7369.
  
 Copyright (c) 1988,1990,1992,1993,1995,1998,2003,2009,2013,
            Gaussian, Inc.  All Rights Reserved.
  
 This is part of the Gaussian(R) 09 program.  It is based on
 the Gaussian(R) 03 system (copyright 2003, Gaussian, Inc.),
 the Gaussian(R) 98 system (copyright 1998, Gaussian, Inc.),
 the Gaussian(R) 94 system (copyright 1995, Gaussian, Inc.),
 the Gaussian 92(TM) system (copyright 1992, Gaussian, Inc.),
 the Gaussian 90(TM) system (copyright 1990, Gaussian, Inc.),
 the Gaussian 88(TM) system (copyright 1988, Gaussian, Inc.),
 the Gaussian 86(TM) system (copyright 1986, Carnegie Mellon
 University), and the Gaussian 82(TM) system (copyright 1983,
 Carnegie Mellon University). Gaussian is a federally registered
 trademark of Gaussian, Inc.
  
 This software contains proprietary and confidential information,
 including trade secrets, belonging to Gaussian, Inc.
  
 This software is provided under written license and may be
 used, copied, transmitted, or stored only in accord with that
 written license.
  
 The following legend is applicable only to US Government
 contracts under FAR:
  
                    RESTRICTED RIGHTS LEGEND
  
 Use, reproduction and disclosure by the US Government is
 subject to restrictions as set forth in subparagraphs (a)
 and (c) of the Commercial Computer Software - Restricted
 Rights clause in FAR 52.227-19.
  
 Gaussian, Inc.
 340 Quinnipiac St., Bldg. 40, Wallingford CT 06492
  
  
 ---------------------------------------------------------------
 Warning -- This program may not be used in any manner that
 competes with the business of Gaussian, Inc. or will provide
 assistance to any competitor of Gaussian, Inc.  The licensee
 of this program is prohibited from giving any competitor of
 Gaussian, Inc. access to this program.  By using this program,
 the user acknowledges that Gaussian, Inc. is engaged in the
 business of creating and licensing software in the field of
 computational chemistry and represents and warrants to the
 licensee that it is not a competitor of Gaussian, Inc. and that
 it will not use this program in any manner prohibited above.
 ---------------------------------------------------------------
  

 Cite this work as:
 Gaussian 09, Revision D.01,
 M. J. Frisch, G. W. Trucks, H. B. Schlegel, G. E. Scuseria, 
 M. A. Robb, J. R. Cheeseman, G. Scalmani, V. Barone, B. Mennucci, 
 G. A. Petersson, H. Nakatsuji, M. Caricato, X. Li, H. P. Hratchian, 
 A. F. Izmaylov, J. Bloino, G. Zheng, J. L. Sonnenberg, M. Hada, 
 M. Ehara, K. Toyota, R. Fukuda, J. Hasegawa, M. Ishida, T. Nakajima, 
 Y. Honda, O. Kitao, H. Nakai, T. Vreven, J. A. Montgomery, Jr., 
 J. E. Peralta, F. Ogliaro, M. Bearpark, J. J. Heyd, E. Brothers, 
 K. N. Kudin, V. N. Staroverov, T. Keith, R. Kobayashi, J. Normand, 
 K. Raghavachari, A. Rendell, J. C. Burant, S. S. Iyengar, J. Tomasi, 
 M. Cossi, N. Rega, J. M. Millam, M. Klene, J. E. Knox, J. B. Cross, 
 V. Bakken, C. Adamo, J. Jaramillo, R. Gomperts, R. E. Stratmann, 
 O. Yazyev, A. J. Austin, R. Cammi, C. Pomelli, J. W. Ochterski, 
 R. L. Martin, K. Morokuma, V. G. Zakrzewski, G. A. Voth, 
 P. Salvador, J. J. Dannenberg, S. Dapprich, A. D. Daniels, 
 O. Farkas, J. B. Foresman, J. V. Ortiz, J. Cioslowski, 
 and D. J. Fox, Gaussian, Inc., Wallingford CT, 2013.
 
 ******************************************
 Gaussian 09:  ES64L-G09RevD.01 24-Apr-2013
                15-Jun-2021 
 ******************************************
 -------------------
 #N B3LYP/STO-3G OPT
 -------------------
 1/14=-1,18=20,19=15,26=3,38=1/1,3;
 2/9=110,12=2,17=6,18=5,40=1/2;
 3/6=3,11=2,16=1,25=1,30=1,71=1,74=-5/1,2,3;
 4//1;
 5/5=2,38=5/2;
 6/7=2,8=2,9=2,10=2,28=1/1;
 7//1,2,3,16;
 1/14=-1,18=20,19=15,26=3/3(2);
 2/9=110/2;
 99//99;
 2/9=110/2;
 3/6=3,11=2,16=1,25=1,30=1,71=1,74=-5/1,2,3;
 4/5=5,16=3,69=1/1;
 5/5=2,38=5/2;
 7//1,2,3,16;
 1/14=-1,18=20,19=15,26=3/3(-5);
 2/9=110/2;
 6/7=2,8=2,9=2,10=2,19=2,28=1/1;
 99/9=1/99;
 -----
 2Naph
 -----
 Symbolic Z-matrix:
 Charge = -1 Multiplicity = 1
 N                     1.1142   -0.27043   0.00406 
 C                     2.27325  -0.25291   0.00388 
 C                     4.46803  -1.38276   0.00336 
 C                     3.70948  -0.20333   0.00289 
 C                     4.35277   1.03633   0.00294 
 C                     5.74702   1.1005    0.00235 
 C                     6.51754  -0.0695    0.00155 
 C                     5.87418  -1.32924   0.00228 
 C                     6.65873  -2.49387   0.00174 
 C                     8.05374  -2.4207    0.0004 
 C                     8.68312  -1.17463  -0.0006 
 C                     7.91848  -0.00742  -0.00005 
 N                     9.52702  -4.5525   -0.00049 
 C                     8.84236  -3.61386  -0.00008 
 H                     3.96114  -2.34874   0.00377 
 H                     3.77778   1.96077   0.00279 
 H                     6.22805   2.07716   0.00159 
 H                     9.76968  -1.10174  -0.00173 
 H                     8.42741   0.95537  -0.00091 
 

 GradGradGradGradGradGradGradGradGradGradGradGradGradGradGradGradGradGrad
 Berny optimization.
 Initialization pass.
                           ----------------------------
                           !    Initial Parameters    !
                           ! (Angstroms and Degrees)  !
 --------------------------                            --------------------------
 ! Name  Definition              Value          Derivative Info.                !
 --------------------------------------------------------------------------------
 ! R1    R(1,2)                  1.1592         estimate D2E/DX2                !
 ! R2    R(2,4)                  1.4371         estimate D2E/DX2                !
 ! R3    R(3,4)                  1.4023         estimate D2E/DX2                !
 ! R4    R(3,8)                  1.4072         estimate D2E/DX2                !
 ! R5    R(3,15)                 1.0909         estimate D2E/DX2                !
 ! R6    R(4,5)                  1.3966         estimate D2E/DX2                !
 ! R7    R(5,6)                  1.3957         estimate D2E/DX2                !
 ! R8    R(5,16)                 1.0887         estimate D2E/DX2                !
 ! R9    R(6,7)                  1.4009         estimate D2E/DX2                !
 ! R10   R(6,17)                 1.0887         estimate D2E/DX2                !
 ! R11   R(7,8)                  1.4145         estimate D2E/DX2                !
 ! R12   R(7,12)                 1.4023         estimate D2E/DX2                !
 ! R13   R(8,9)                  1.4042         estimate D2E/DX2                !
 ! R14   R(9,10)                 1.3969         estimate D2E/DX2                !
 ! R15   R(10,11)                1.396          estimate D2E/DX2                !
 ! R16   R(10,14)                1.4302         estimate D2E/DX2                !
 ! R17   R(11,12)                1.3954         estimate D2E/DX2                !
 ! R18   R(11,18)                1.089          estimate D2E/DX2                !
 ! R19   R(12,19)                1.089          estimate D2E/DX2                !
 ! R20   R(13,14)                1.1618         estimate D2E/DX2                !
 ! A1    A(4,3,8)              120.5674         estimate D2E/DX2                !
 ! A2    A(4,3,15)             119.5651         estimate D2E/DX2                !
 ! A3    A(8,3,15)             119.8676         estimate D2E/DX2                !
 ! A4    A(2,4,3)              120.7699         estimate D2E/DX2                !
 ! A5    A(2,4,5)              119.403          estimate D2E/DX2                !
 ! A6    A(3,4,5)              119.827          estimate D2E/DX2                !
 ! A7    A(4,5,6)              120.0611         estimate D2E/DX2                !
 ! A8    A(4,5,16)             120.693          estimate D2E/DX2                !
 ! A9    A(6,5,16)             119.2459         estimate D2E/DX2                !
 ! A10   A(5,6,7)              120.7323         estimate D2E/DX2                !
 ! A11   A(5,6,17)             118.8566         estimate D2E/DX2                !
 ! A12   A(7,6,17)             120.4111         estimate D2E/DX2                !
 ! A13   A(6,7,8)              119.5787         estimate D2E/DX2                !
 ! A14   A(6,7,12)             120.8302         estimate D2E/DX2                !
 ! A15   A(8,7,12)             119.5911         estimate D2E/DX2                !
 ! A16   A(3,8,7)              119.2335         estimate D2E/DX2                !
 ! A17   A(3,8,9)              121.7864         estimate D2E/DX2                !
 ! A18   A(7,8,9)              118.9801         estimate D2E/DX2                !
 ! A19   A(8,9,10)             120.9636         estimate D2E/DX2                !
 ! A20   A(9,10,11)            119.8005         estimate D2E/DX2                !
 ! A21   A(9,10,14)            120.4603         estimate D2E/DX2                !
 ! A22   A(11,10,14)           119.7393         estimate D2E/DX2                !
 ! A23   A(10,11,12)           119.9732         estimate D2E/DX2                !
 ! A24   A(10,11,18)           120.6358         estimate D2E/DX2                !
 ! A25   A(12,11,18)           119.391          estimate D2E/DX2                !
 ! A26   A(7,12,11)            120.6915         estimate D2E/DX2                !
 ! A27   A(7,12,19)            120.3982         estimate D2E/DX2                !
 ! A28   A(11,12,19)           118.9102         estimate D2E/DX2                !
 ! A29   L(1,2,4,16,-1)        178.8889         estimate D2E/DX2                !
 ! A30   L(10,14,13,18,-1)     177.3551         estimate D2E/DX2                !
 ! A31   L(1,2,4,16,-2)        180.0373         estimate D2E/DX2                !
 ! A32   L(10,14,13,18,-2)     179.998          estimate D2E/DX2                !
 ! D1    D(8,3,4,2)            179.995          estimate D2E/DX2                !
 ! D2    D(8,3,4,5)             -0.0758         estimate D2E/DX2                !
 ! D3    D(15,3,4,2)             0.0435         estimate D2E/DX2                !
 ! D4    D(15,3,4,5)           179.9728         estimate D2E/DX2                !
 ! D5    D(4,3,8,7)              0.039          estimate D2E/DX2                !
 ! D6    D(4,3,8,9)           -179.9531         estimate D2E/DX2                !
 ! D7    D(15,3,8,7)           179.9903         estimate D2E/DX2                !
 ! D8    D(15,3,8,9)            -0.0018         estimate D2E/DX2                !
 ! D9    D(2,4,5,6)            179.9827         estimate D2E/DX2                !
 ! D10   D(2,4,5,16)            -0.0569         estimate D2E/DX2                !
 ! D11   D(3,4,5,6)              0.0525         estimate D2E/DX2                !
 ! D12   D(3,4,5,16)          -179.9871         estimate D2E/DX2                !
 ! D13   D(4,5,6,7)              0.0073         estimate D2E/DX2                !
 ! D14   D(4,5,6,17)           179.9513         estimate D2E/DX2                !
 ! D15   D(16,5,6,7)          -179.9537         estimate D2E/DX2                !
 ! D16   D(16,5,6,17)           -0.0097         estimate D2E/DX2                !
 ! D17   D(5,6,7,8)             -0.0438         estimate D2E/DX2                !
 ! D18   D(5,6,7,12)           179.9521         estimate D2E/DX2                !
 ! D19   D(17,6,7,8)          -179.987          estimate D2E/DX2                !
 ! D20   D(17,6,7,12)            0.009          estimate D2E/DX2                !
 ! D21   D(6,7,8,3)              0.0206         estimate D2E/DX2                !
 ! D22   D(6,7,8,9)           -179.9872         estimate D2E/DX2                !
 ! D23   D(12,7,8,3)          -179.9755         estimate D2E/DX2                !
 ! D24   D(12,7,8,9)             0.0168         estimate D2E/DX2                !
 ! D25   D(6,7,12,11)          179.9884         estimate D2E/DX2                !
 ! D26   D(6,7,12,19)           -0.0132         estimate D2E/DX2                !
 ! D27   D(8,7,12,11)           -0.0157         estimate D2E/DX2                !
 ! D28   D(8,7,12,19)          179.9828         estimate D2E/DX2                !
 ! D29   D(3,8,9,10)           179.9872         estimate D2E/DX2                !
 ! D30   D(7,8,9,10)            -0.0049         estimate D2E/DX2                !
 ! D31   D(8,9,10,11)           -0.0085         estimate D2E/DX2                !
 ! D32   D(8,9,10,14)          179.9973         estimate D2E/DX2                !
 ! D33   D(9,10,11,12)           0.0099         estimate D2E/DX2                !
 ! D34   D(9,10,11,18)        -179.995          estimate D2E/DX2                !
 ! D35   D(14,10,11,12)       -179.9959         estimate D2E/DX2                !
 ! D36   D(14,10,11,18)         -0.0008         estimate D2E/DX2                !
 ! D37   D(10,11,12,7)           0.0022         estimate D2E/DX2                !
 ! D38   D(10,11,12,19)       -179.9962         estimate D2E/DX2                !
 ! D39   D(18,11,12,7)        -179.9929         estimate D2E/DX2                !
 ! D40   D(18,11,12,19)          0.0086         estimate D2E/DX2                !
 --------------------------------------------------------------------------------
 Trust Radius=3.00D-01 FncErr=1.00D-07 GrdErr=1.00D-06
 Number of steps in this run=    102 maximum allowed number of steps=    114.
 GradGradGradGradGradGradGradGradGradGradGradGradGradGradGradGradGradGrad

                          Input orientation:                          
 ---------------------------------------------------------------------
 Center     Atomic      Atomic             Coordinates (Angstroms)
 Number     Number       Type             X           Y           Z
 ---------------------------------------------------------------------
      1          7           0        1.114200   -0.270430    0.004060
      2          6           0        2.273250   -0.252910    0.003880
      3          6           0        4.468030   -1.382760    0.003360
      4          6           0        3.709480   -0.203330    0.002890
      5          6           0        4.352770    1.036330    0.002940
      6          6           0        5.747020    1.100500    0.002350
      7          6           0        6.517540   -0.069500    0.001550
      8          6           0        5.874180   -1.329240    0.002280
      9          6           0        6.658730   -2.493870    0.001740
     10          6           0        8.053740   -2.420700    0.000400
     11          6           0        8.683120   -1.174630   -0.000600
     12          6           0        7.918480   -0.007420   -0.000050
     13          7           0        9.527020   -4.552500   -0.000490
     14          6           0        8.842360   -3.613860   -0.000080
     15          1           0        3.961140   -2.348740    0.003770
     16          1           0        3.777780    1.960770    0.002790
     17          1           0        6.228050    2.077160    0.001590
     18          1           0        9.769680   -1.101740   -0.001730
     19          1           0        8.427410    0.955370   -0.000910
 ---------------------------------------------------------------------
                    Distance matrix (angstroms):
                    1          2          3          4          5
     1  N    0.000000
     2  C    1.159182   0.000000
     3  C    3.533476   2.468526   0.000000
     4  C    2.596148   1.437086   1.402303   0.000000
     5  C    3.492271   2.446742   2.421834   1.396631   0.000000
     6  C    4.831405   3.728109   2.793277   2.418996   1.395726
     7  C    5.407075   4.248252   2.434162   2.811248   2.430862
     8  C    4.876319   3.758349   1.407169   2.440000   2.812581
     9  C    5.973734   4.924870   2.456366   3.734254   4.216606
    10  C    7.265046   6.173604   3.732914   4.877431   5.064409
    11  C    7.622739   6.475803   4.220227   5.067596   4.862128
    12  C    6.809362   5.650567   3.714455   4.213558   3.715335
    13  N    9.439899   8.432299   5.969979   7.263543   7.616291
    14  C    8.420392   7.378971   4.910456   6.162644   6.463799
    15  H    3.524832   2.690999   1.090896   2.160120   3.407649
    16  H    3.474610   2.676563   3.414035   2.165178   1.088670
    17  H    5.626957   4.590172   3.881845   3.397621   2.144762
    18  H    8.695312   7.544336   5.309095   6.126433   5.823597
    19  H    7.415231   6.271654   4.598213   4.858134   4.075446
                    6          7          8          9         10
     6  C    0.000000
     7  C    1.400929   0.000000
     8  C    2.433065   1.414517   0.000000
     9  C    3.708195   2.428478   1.404237   0.000000
    10  C    4.209491   2.808568   2.437575   1.396928   0.000000
    11  C    3.714419   2.431266   2.813193   2.416310   1.395998
    12  C    2.437772   1.402316   2.434415   2.787366   2.417068
    13  N    6.800354   5.399469   4.871617   3.530588   2.591356
    14  C    5.639710   4.238783   3.745609   2.454103   1.430228
    15  H    3.884151   3.424926   2.167742   2.701492   4.093234
    16  H    2.148946   3.410027   3.901161   5.305063   6.122183
    17  H    1.088694   2.166092   3.424731   4.591274   4.854265
    18  H    4.586030   3.412029   3.902139   3.408232   2.164281
    19  H    2.684318   2.167480   3.426140   3.876273   3.396687
                   11         12         13         14         15
    11  C    0.000000
    12  C    1.395369   0.000000
    13  N    3.481691   4.821323   0.000000
    14  C    2.444422   3.722897   1.161811   0.000000
    15  H    4.865763   4.598079   5.986284   5.042505   0.000000
    16  H    5.821779   4.584668   8.687719   7.531698   4.313409
    17  H    4.074495   2.683846   7.405106   6.262773   4.972673
    18  H    1.089003   2.150461   3.459282   2.677811   5.940890
    19  H    2.145294   1.089025   5.616562   4.588033   5.555604
                   16         17         18         19
    16  H    0.000000
    17  H    2.453033   0.000000
    18  H    6.729179   4.759050   0.000000
    19  H    4.757090   2.468928   2.456296   0.000000
 Stoichiometry    C12H5N2(1-)
 Framework group  C1[X(C12H5N2)]
 Deg. of freedom    51
 Full point group                 C1      NOp   1
 Largest Abelian subgroup         C1      NOp   1
 Largest concise Abelian subgroup C1      NOp   1
                         Standard orientation:                         
 ---------------------------------------------------------------------
 Center     Atomic      Atomic             Coordinates (Angstroms)
 Number     Number       Type             X           Y           Z
 ---------------------------------------------------------------------
      1          7           0        4.714599   -1.482199    0.000750
      2          6           0        3.687256   -0.945291    0.000179
      3          6           0        1.218829   -0.967374   -0.000660
      4          6           0        2.426763   -0.255092    0.000237
      5          6           0        2.409712    1.141435   -0.000296
      6          6           0        1.193276    1.825786   -0.000612
      7          6           0       -0.021109    1.127309   -0.000247
      8          6           0       -0.013025   -0.287184   -0.000492
      9          6           0       -1.237527   -0.974555   -0.000397
     10          6           0       -2.450594   -0.281823    0.000037
     11          6           0       -2.452339    1.114173    0.000562
     12          6           0       -1.244460    1.812802    0.000444
     13          7           0       -4.725210   -1.523293    0.000089
     14          6           0       -3.691562   -0.992845    0.000071
     15          1           0        1.237135   -2.058117   -0.000690
     16          1           0        3.339021    1.708522    0.000176
     17          1           0        1.202871    2.914438   -0.000216
     18          1           0       -3.390036    1.667935    0.000985
     19          1           0       -1.266023    2.901614    0.000922
 ---------------------------------------------------------------------
 Rotational constants (GHZ):      1.9205189      0.3787059      0.3163292
 Standard basis: STO-3G (5D, 7F)
 There are    75 symmetry adapted cartesian basis functions of A   symmetry.
 There are    75 symmetry adapted basis functions of A   symmetry.
    75 basis functions,   225 primitive gaussians,    75 cartesian basis functions
    46 alpha electrons       46 beta electrons
       nuclear repulsion energy       694.6456191872 Hartrees.
 NAtoms=   19 NActive=   19 NUniq=   19 SFac= 1.00D+00 NAtFMM=   60 NAOKFM=F Big=F
 Integral buffers will be    131072 words long.
 Raffenetti 2 integral format.
 Two-electron integral symmetry is turned on.
 One-electron integrals computed using PRISM.
 NBasis=    75 RedAO= T EigKep=  1.54D-01  NBF=    75
 NBsUse=    75 1.00D-06 EigRej= -1.00D+00 NBFU=    75
 ExpMin= 1.69D-01 ExpMax= 9.91D+01 ExpMxC= 9.91D+01 IAcc=1 IRadAn=         1 AccDes= 0.00D+00
 Harris functional with IExCor=  402 and IRadAn=       1 diagonalized for initial guess.
 HarFok:  IExCor=  402 AccDes= 0.00D+00 IRadAn=         1 IDoV= 1 UseB2=F ITyADJ=14
 ICtDFT=  3500011 ScaDFX=  1.000000  1.000000  1.000000  1.000000
 FoFCou: FMM=F IPFlag=           0 FMFlag=      100000 FMFlg1=           0
         NFxFlg=           0 DoJE=T BraDBF=F KetDBF=T FulRan=T
         wScrn=  0.000000 ICntrl=     500 IOpCl=  0 I1Cent=   200000004 NGrid=           0
         NMat0=    1 NMatS0=      1 NMatT0=    0 NMatD0=    1 NMtDS0=    0 NMtDT0=    0
 Petite list used in FoFCou.
 Keep R1 ints in memory in canonical form, NReq=4993994.
 Requested convergence on RMS density matrix=1.00D-08 within 128 cycles.
 Requested convergence on MAX density matrix=1.00D-06.
 Requested convergence on             energy=1.00D-06.
 No special actions if energy rises.
 Integral accuracy reduced to 1.0D-05 until final iterations.
 EnCoef did     4 forward-backward iterations
 EnCoef did     3 forward-backward iterations
 Initial convergence to 1.0D-05 achieved.  Increase integral accuracy.
 SCF Done:  E(RB3LYP) =  -562.487083186     A.U. after   28 cycles
            NFock= 28  Conv=0.32D-08     -V/T= 2.0127

 **********************************************************************

            Population analysis using the SCF density.

 **********************************************************************

 Orbital symmetries:
       Occupied  (A) (A) (A) (A) (A) (A) (A) (A) (A) (A) (A) (A)
                 (A) (A) (A) (A) (A) (A) (A) (A) (A) (A) (A) (A)
                 (A) (A) (A) (A) (A) (A) (A) (A) (A) (A) (A) (A)
                 (A) (A) (A) (A) (A) (A) (A) (A) (A) (A)
       Virtual   (A) (A) (A) (A) (A) (A) (A) (A) (A) (A) (A) (A)
                 (A) (A) (A) (A) (A) (A) (A) (A) (A) (A) (A) (A)
                 (A) (A) (A) (A) (A)
 The electronic state is 1-A.
 Alpha  occ. eigenvalues --  -13.99720 -13.93845  -9.90462  -9.90372  -9.88231
 Alpha  occ. eigenvalues --   -9.87798  -9.86825  -9.86335  -9.85018  -9.84874
 Alpha  occ. eigenvalues --   -9.83730  -9.83185  -9.82906  -9.65696  -0.74982
 Alpha  occ. eigenvalues --   -0.69952  -0.68582  -0.63211  -0.58301  -0.56231
 Alpha  occ. eigenvalues --   -0.51740  -0.45348  -0.44202  -0.39194  -0.36536
 Alpha  occ. eigenvalues --   -0.33065  -0.31159  -0.27303  -0.25804  -0.23596
 Alpha  occ. eigenvalues --   -0.21818  -0.21714  -0.20908  -0.17800  -0.17038
 Alpha  occ. eigenvalues --   -0.16057  -0.15126  -0.14934  -0.13778  -0.11041
 Alpha  occ. eigenvalues --   -0.10629  -0.09488  -0.07521  -0.04032   0.01955
 Alpha  occ. eigenvalues --    0.14407
 Alpha virt. eigenvalues --    0.18211   0.20188   0.26945   0.26988   0.31106
 Alpha virt. eigenvalues --    0.32006   0.34787   0.40609   0.44830   0.49459
 Alpha virt. eigenvalues --    0.50054   0.52592   0.55171   0.56996   0.60006
 Alpha virt. eigenvalues --    0.61184   0.64350   0.65384   0.70230   0.72196
 Alpha virt. eigenvalues --    0.73647   0.79375   0.82309   0.86010   0.87527
 Alpha virt. eigenvalues --    0.98526   0.99875   1.13956   1.19129
          Condensed to atoms (all electrons):
               1          2          3          4          5          6
     1  N    6.576487   0.688710  -0.000124  -0.011547  -0.000162  -0.000001
     2  C    0.688710   4.893551  -0.029892   0.426916  -0.032719   0.001035
     3  C   -0.000124  -0.029892   4.828957   0.499210  -0.030558  -0.011004
     4  C   -0.011547   0.426916   0.499210   4.769439   0.481201  -0.030734
     5  C   -0.000162  -0.032719  -0.030558   0.481201   4.823367   0.523410
     6  C   -0.000001   0.001035  -0.011004  -0.030734   0.523410   4.838294
     7  C    0.000000   0.000005  -0.037549  -0.009747  -0.029521   0.474772
     8  C   -0.000001   0.000945   0.484157  -0.029017  -0.010412  -0.027607
     9  C    0.000000  -0.000007  -0.037432   0.000939   0.000033   0.001208
    10  C    0.000000   0.000000   0.001309  -0.000014   0.000001   0.000065
    11  C    0.000000   0.000000  -0.000023   0.000001  -0.000011   0.000982
    12  C    0.000000   0.000000   0.000977   0.000046   0.000965  -0.034913
    13  N    0.000000   0.000000   0.000000   0.000000   0.000000   0.000000
    14  C    0.000000   0.000000  -0.000001   0.000000   0.000000   0.000000
    15  H    0.000060  -0.003620   0.386874  -0.026358   0.001395   0.000032
    16  H    0.000063  -0.003795   0.001391  -0.025644   0.390363  -0.025919
    17  H    0.000000  -0.000022   0.000003   0.001498  -0.027613   0.387450
    18  H    0.000000   0.000000   0.000002   0.000000   0.000000  -0.000016
    19  H    0.000000   0.000000  -0.000024  -0.000001   0.000024  -0.004458
               7          8          9         10         11         12
     1  N    0.000000  -0.000001   0.000000   0.000000   0.000000   0.000000
     2  C    0.000005   0.000945  -0.000007   0.000000   0.000000   0.000000
     3  C   -0.037549   0.484157  -0.037432   0.001309  -0.000023   0.000977
     4  C   -0.009747  -0.029017   0.000939  -0.000014   0.000001   0.000046
     5  C   -0.029521  -0.010412   0.000033   0.000001  -0.000011   0.000965
     6  C    0.474772  -0.027607   0.001208   0.000065   0.000982  -0.034913
     7  C    4.802073   0.447718  -0.031864  -0.012359  -0.027377   0.489116
     8  C    0.447718   4.823129   0.450546  -0.027912  -0.011774  -0.032449
     9  C   -0.031864   0.450546   5.426385   0.478983  -0.029808  -0.013055
    10  C   -0.012359  -0.027912   0.478983   4.823265   0.471187  -0.033206
    11  C   -0.027377  -0.011774  -0.029808   0.471187   4.847401   0.520886
    12  C    0.489116  -0.032449  -0.013055  -0.033206   0.520886   4.864917
    13  N    0.000000  -0.000003   0.000039  -0.011624  -0.000085  -0.000001
    14  C   -0.000027   0.001350  -0.036648   0.421248  -0.041572   0.000977
    15  H    0.001564  -0.023691  -0.001607   0.000022   0.000000  -0.000018
    16  H    0.001470   0.000039   0.000001   0.000000   0.000000  -0.000021
    17  H   -0.025308   0.001412  -0.000033  -0.000003   0.000021  -0.004102
    18  H    0.001459   0.000094   0.001632  -0.025106   0.380655  -0.027328
    19  H   -0.026196   0.001344   0.000028   0.001436  -0.027369   0.390681
              13         14         15         16         17         18
     1  N    0.000000   0.000000   0.000060   0.000063   0.000000   0.000000
     2  C    0.000000   0.000000  -0.003620  -0.003795  -0.000022   0.000000
     3  C    0.000000  -0.000001   0.386874   0.001391   0.000003   0.000002
     4  C    0.000000   0.000000  -0.026358  -0.025644   0.001498   0.000000
     5  C    0.000000   0.000000   0.001395   0.390363  -0.027613   0.000000
     6  C    0.000000   0.000000   0.000032  -0.025919   0.387450  -0.000016
     7  C    0.000000  -0.000027   0.001564   0.001470  -0.025308   0.001459
     8  C   -0.000003   0.001350  -0.023691   0.000039   0.001412   0.000094
     9  C    0.000039  -0.036648  -0.001607   0.000001  -0.000033   0.001632
    10  C   -0.011624   0.421248   0.000022   0.000000  -0.000003  -0.025106
    11  C   -0.000085  -0.041572   0.000000   0.000000   0.000021   0.380655
    12  C   -0.000001   0.000977  -0.000018  -0.000021  -0.004102  -0.027328
    13  N    6.614660   0.685678   0.000000   0.000000   0.000000   0.000044
    14  C    0.685678   4.917000  -0.000002   0.000000   0.000000  -0.002679
    15  H    0.000000  -0.000002   0.583444  -0.000038   0.000003   0.000000
    16  H    0.000000   0.000000  -0.000038   0.604722  -0.004101   0.000000
    17  H    0.000000   0.000000   0.000003  -0.004101   0.616353  -0.000004
    18  H    0.000044  -0.002679   0.000000   0.000000  -0.000004   0.629169
    19  H    0.000000  -0.000023   0.000001  -0.000002   0.001030  -0.004193
              19
     1  N    0.000000
     2  C    0.000000
     3  C   -0.000024
     4  C   -0.000001
     5  C    0.000024
     6  C   -0.004458
     7  C   -0.026196
     8  C    0.001344
     9  C    0.000028
    10  C    0.001436
    11  C   -0.027369
    12  C    0.390681
    13  N    0.000000
    14  C   -0.000023
    15  H    0.000001
    16  H   -0.000002
    17  H    0.001030
    18  H   -0.004193
    19  H    0.628080
 Mulliken charges:
               1
     1  N   -0.253485
     2  C    0.058893
     3  C   -0.056273
     4  C   -0.046188
     5  C   -0.089763
     6  C   -0.092598
     7  C   -0.018227
     8  C   -0.047868
     9  C   -0.209341
    10  C   -0.087292
    11  C   -0.083115
    12  C   -0.123472
    13  N   -0.288709
    14  C    0.054699
    15  H    0.081938
    16  H    0.061471
    17  H    0.053417
    18  H    0.046271
    19  H    0.039644
 Sum of Mulliken charges =  -1.00000
 Mulliken charges with hydrogens summed into heavy atoms:
               1
     1  N   -0.253485
     2  C    0.058893
     3  C    0.025665
     4  C   -0.046188
     5  C   -0.028292
     6  C   -0.039181
     7  C   -0.018227
     8  C   -0.047868
     9  C   -0.209341
    10  C   -0.087292
    11  C   -0.036844
    12  C   -0.083828
    13  N   -0.288709
    14  C    0.054699
 Electronic spatial extent (au):  <R**2>=           3169.0182
 Charge=             -1.0000 electrons
 Dipole moment (field-independent basis, Debye):
    X=              3.4338    Y=              5.2760    Z=              0.0004  Tot=              6.2950
 Quadrupole moment (field-independent basis, Debye-Ang):
   XX=           -138.6546   YY=            -83.9227   ZZ=            -73.7944
   XY=             -4.5699   XZ=             -0.0061   YZ=              0.0014
 Traceless Quadrupole moment (field-independent basis, Debye-Ang):
   XX=            -39.8640   YY=             14.8679   ZZ=             24.9961
   XY=             -4.5699   XZ=             -0.0061   YZ=              0.0014
 Octapole moment (field-independent basis, Debye-Ang**2):
  XXX=             27.0779  YYY=             14.4297  ZZZ=              0.0021  XYY=             12.2730
  XXY=            114.9049  XXZ=             -0.0256  XZZ=             -0.0939  YZZ=             -3.7297
  YYZ=              0.0042  XYZ=              0.0127
 Hexadecapole moment (field-independent basis, Debye-Ang**3):
 XXXX=          -4866.0236 YYYY=           -748.9653 ZZZZ=            -57.9508 XXXY=            -36.7679
 XXXZ=             -0.1268 YYYX=            -16.1052 YYYZ=              0.0108 ZZZX=              0.0091
 ZZZY=             -0.0037 XXYY=           -846.0177 XXZZ=           -543.1426 YYZZ=           -136.8961
 XXYZ=              0.0619 YYXZ=             -0.0163 ZZXY=              0.1424
 N-N= 6.946456191872D+02 E-N=-2.711660332262D+03  KE= 5.554057327156D+02
 Calling FoFJK, ICntrl=      2127 FMM=F ISym2X=0 I1Cent= 0 IOpClX= 0 NMat=1 NMatS=1 NMatT=0.
 ***** Axes restored to original set *****
 -------------------------------------------------------------------
 Center     Atomic                   Forces (Hartrees/Bohr)
 Number     Number              X              Y              Z
 -------------------------------------------------------------------
      1        7          -0.106781077   -0.002254389    0.000042059
      2        6           0.086144072    0.001050081   -0.000072178
      3        6          -0.015652368    0.002923490   -0.000080245
      4        6          -0.009716680   -0.025317137    0.000143910
      5        6           0.032612602    0.031852936   -0.000064574
      6        6          -0.033486492    0.025605441   -0.000031670
      7        6           0.003455903    0.026660140    0.000025956
      8        6           0.020688982   -0.003156994   -0.000008392
      9        6          -0.024894850   -0.096186419    0.000069102
     10        6          -0.034181485    0.022923647    0.000006749
     11        6           0.017093479    0.031316649   -0.000034559
     12        6           0.034804086   -0.005197102   -0.000025976
     13        7           0.056356727   -0.082064325   -0.000038694
     14        6          -0.034493655    0.055765421    0.000039903
     15        1          -0.001378751   -0.006998741    0.000007956
     16        1          -0.006062554    0.004786006    0.000018488
     17        1           0.004127930    0.007542655    0.000016692
     18        1           0.011426059    0.004191450   -0.000022245
     19        1          -0.000061928    0.006557191    0.000007718
 -------------------------------------------------------------------
 Cartesian Forces:  Max     0.106781077 RMS     0.030635538

 GradGradGradGradGradGradGradGradGradGradGradGradGradGradGradGradGradGrad
 Berny optimization.
 FormGI is forming the generalized inverse of G from B-inverse, IUseBI=4.
 Internal  Forces:  Max     0.106802976 RMS     0.021468805
 Search for a local minimum.
 Step number   1 out of a maximum of  102
 All quantities printed in internal units (Hartrees-Bohrs-Radians)
 Mixed Optimization -- RFO/linear search
 Second derivative matrix not updated -- first step.
 ITU=  0
     Eigenvalues ---    0.01598   0.01598   0.01979   0.01984   0.02017
     Eigenvalues ---    0.02027   0.02061   0.02087   0.02093   0.02101
     Eigenvalues ---    0.02109   0.02123   0.02136   0.02137   0.02139
     Eigenvalues ---    0.02146   0.04843   0.04843   0.16000   0.16000
     Eigenvalues ---    0.16000   0.16000   0.16000   0.22329   0.22613
     Eigenvalues ---    0.23517   0.24416   0.24688   0.25000   0.25000
     Eigenvalues ---    0.25000   0.34709   0.34926   0.34928   0.34964
     Eigenvalues ---    0.34967   0.38569   0.39988   0.40957   0.41183
     Eigenvalues ---    0.42158   0.43490   0.44526   0.45352   0.45383
     Eigenvalues ---    0.45579   0.45753   0.46127   0.46289   1.26616
     Eigenvalues ---    1.28330
 RFO step:  Lambda=-6.42548894D-02 EMin= 1.59818090D-02
 Linear search not attempted -- first point.
 Maximum step size (   0.300) exceeded in Quadratic search.
    -- Step size scaled by   0.830
 Iteration  1 RMS(Cart)=  0.04349163 RMS(Int)=  0.00094029
 Iteration  2 RMS(Cart)=  0.00226853 RMS(Int)=  0.00025607
 Iteration  3 RMS(Cart)=  0.00000122 RMS(Int)=  0.00025607
 Iteration  4 RMS(Cart)=  0.00000000 RMS(Int)=  0.00025607
 Variable       Old X    -DE/DX   Delta X   Delta X   Delta X     New X
                                 (Linear)    (Quad)   (Total)
    R1        2.19054   0.10680   0.00000   0.06579   0.06579   2.25633
    R2        2.71570   0.02067   0.00000   0.03696   0.03696   2.75266
    R3        2.64997   0.01349   0.00000   0.02080   0.02087   2.67084
    R4        2.65916   0.02620   0.00000   0.04362   0.04378   2.70294
    R5        2.06150   0.00684   0.00000   0.01380   0.01380   2.07529
    R6        2.63925   0.04205   0.00000   0.06462   0.06454   2.70379
    R7        2.63754  -0.00561   0.00000  -0.00968  -0.00984   2.62770
    R8        2.05729   0.00727   0.00000   0.01457   0.01457   2.07186
    R9        2.64737   0.04085   0.00000   0.06621   0.06613   2.71351
   R10        2.05733   0.00859   0.00000   0.01723   0.01723   2.07456
   R11        2.67305   0.05448   0.00000   0.09417   0.09413   2.76718
   R12        2.64999   0.02686   0.00000   0.04260   0.04209   2.69208
   R13        2.65362   0.04967   0.00000   0.08217   0.08253   2.73615
   R14        2.63981   0.02580   0.00000   0.04127   0.04177   2.68158
   R15        2.63805   0.05121   0.00000   0.07932   0.07945   2.71750
   R16        2.70274   0.03399   0.00000   0.05955   0.05955   2.76229
   R17        2.63686  -0.00129   0.00000  -0.00387  -0.00424   2.63262
   R18        2.05792   0.01168   0.00000   0.02345   0.02345   2.08136
   R19        2.05796   0.00577   0.00000   0.01158   0.01158   2.06954
   R20        2.19550   0.09951   0.00000   0.06209   0.06209   2.25759
    A1        2.10430   0.00870   0.00000   0.02559   0.02578   2.13008
    A2        2.08680  -0.00226   0.00000  -0.00505  -0.00514   2.08166
    A3        2.09208  -0.00645   0.00000  -0.02054  -0.02064   2.07144
    A4        2.10783  -0.00235   0.00000  -0.00406  -0.00403   2.10380
    A5        2.08398   0.00039   0.00000   0.00317   0.00320   2.08718
    A6        2.09138   0.00195   0.00000   0.00089   0.00083   2.09221
    A7        2.09546   0.00236   0.00000   0.00218   0.00189   2.09735
    A8        2.10649  -0.00387   0.00000  -0.01107  -0.01092   2.09557
    A9        2.08123   0.00152   0.00000   0.00888   0.00903   2.09027
   A10        2.10718   0.00058   0.00000   0.00189   0.00161   2.10878
   A11        2.07444   0.00009   0.00000   0.00046   0.00061   2.07505
   A12        2.10157  -0.00067   0.00000  -0.00236  -0.00221   2.09936
   A13        2.08704   0.00232   0.00000   0.00984   0.01017   2.09721
   A14        2.10888   0.00512   0.00000   0.01030   0.01069   2.11957
   A15        2.08726  -0.00744   0.00000  -0.02014  -0.02086   2.06640
   A16        2.08102  -0.01592   0.00000  -0.04039  -0.04028   2.04073
   A17        2.12557  -0.01268   0.00000  -0.03878  -0.03899   2.08659
   A18        2.07659   0.02860   0.00000   0.07917   0.07927   2.15587
   A19        2.11121  -0.05049   0.00000  -0.12662  -0.12526   1.98596
   A20        2.09091   0.02812   0.00000   0.07340   0.07398   2.16490
   A21        2.10243  -0.01211   0.00000  -0.03156  -0.03185   2.07058
   A22        2.08984  -0.01601   0.00000  -0.04184  -0.04213   2.04771
   A23        2.09393   0.00577   0.00000   0.01143   0.01109   2.10502
   A24        2.10549   0.00063   0.00000   0.00730   0.00747   2.11296
   A25        2.08377  -0.00640   0.00000  -0.01873  -0.01856   2.06520
   A26        2.10646  -0.00456   0.00000  -0.01724  -0.01824   2.08823
   A27        2.10135  -0.00093   0.00000  -0.00326  -0.00276   2.09858
   A28        2.07538   0.00549   0.00000   0.02050   0.02100   2.09637
   A29        3.12220   0.00140   0.00000   0.01451   0.01451   3.13671
   A30        3.09543   0.00621   0.00000   0.04576   0.04576   3.14119
   A31        3.14224  -0.00005   0.00000  -0.00047  -0.00047   3.14178
   A32        3.14156   0.00001   0.00000   0.00009   0.00009   3.14164
    D1        3.14150   0.00000   0.00000   0.00002   0.00002   3.14152
    D2       -0.00132   0.00004   0.00000   0.00036   0.00037  -0.00096
    D3        0.00076  -0.00002   0.00000  -0.00023  -0.00023   0.00053
    D4        3.14112   0.00001   0.00000   0.00012   0.00012   3.14124
    D5        0.00068  -0.00002   0.00000  -0.00022  -0.00022   0.00046
    D6       -3.14077  -0.00003   0.00000  -0.00027  -0.00027  -3.14104
    D7        3.14142   0.00000   0.00000   0.00003   0.00003   3.14146
    D8       -0.00003   0.00000   0.00000  -0.00002  -0.00002  -0.00005
    D9        3.14129   0.00001   0.00000   0.00008   0.00009   3.14138
   D10       -0.00099   0.00003   0.00000   0.00026   0.00026  -0.00074
   D11        0.00092  -0.00003   0.00000  -0.00025  -0.00025   0.00066
   D12       -3.14137  -0.00001   0.00000  -0.00008  -0.00008  -3.14145
   D13        0.00013   0.00000   0.00000  -0.00002  -0.00002   0.00010
   D14        3.14074   0.00002   0.00000   0.00020   0.00020   3.14094
   D15       -3.14079  -0.00002   0.00000  -0.00019  -0.00019  -3.14097
   D16       -0.00017   0.00000   0.00000   0.00004   0.00004  -0.00013
   D17       -0.00077   0.00002   0.00000   0.00017   0.00017  -0.00059
   D18        3.14076   0.00001   0.00000   0.00012   0.00012   3.14087
   D19       -3.14137  -0.00001   0.00000  -0.00005  -0.00005  -3.14142
   D20        0.00016  -0.00001   0.00000  -0.00011  -0.00011   0.00004
   D21        0.00036   0.00000   0.00000  -0.00005  -0.00005   0.00031
   D22       -3.14137   0.00000   0.00000  -0.00001  -0.00001  -3.14138
   D23       -3.14116   0.00000   0.00000   0.00000   0.00000  -3.14116
   D24        0.00029   0.00000   0.00000   0.00004   0.00005   0.00034
   D25        3.14139   0.00001   0.00000   0.00011   0.00012   3.14151
   D26       -0.00023   0.00001   0.00000   0.00008   0.00008  -0.00015
   D27       -0.00027   0.00001   0.00000   0.00006   0.00006  -0.00021
   D28        3.14129   0.00000   0.00000   0.00002   0.00002   3.14132
   D29        3.14137  -0.00001   0.00000  -0.00006  -0.00006   3.14131
   D30       -0.00009  -0.00001   0.00000  -0.00010  -0.00010  -0.00019
   D31       -0.00015   0.00001   0.00000   0.00006   0.00006  -0.00009
   D32        3.14154   0.00000   0.00000  -0.00003  -0.00003   3.14151
   D33        0.00017   0.00001   0.00000   0.00004   0.00004   0.00021
   D34       -3.14151   0.00000   0.00000   0.00000   0.00000  -3.14150
   D35       -3.14152   0.00001   0.00000   0.00013   0.00013  -3.14139
   D36       -0.00001   0.00001   0.00000   0.00010   0.00010   0.00008
   D37        0.00004  -0.00001   0.00000  -0.00008  -0.00008  -0.00005
   D38       -3.14153   0.00000   0.00000  -0.00005  -0.00005  -3.14157
   D39       -3.14147   0.00000   0.00000  -0.00005  -0.00005  -3.14152
   D40        0.00015   0.00000   0.00000  -0.00001  -0.00001   0.00014
         Item               Value     Threshold  Converged?
 Maximum Force            0.106803     0.000450     NO 
 RMS     Force            0.021469     0.000300     NO 
 Maximum Displacement     0.215548     0.001800     NO 
 RMS     Displacement     0.042891     0.001200     NO 
 Predicted change in Energy=-3.408124D-02
 GradGradGradGradGradGradGradGradGradGradGradGradGradGradGradGradGradGrad

                          Input orientation:                          
 ---------------------------------------------------------------------
 Center     Atomic      Atomic             Coordinates (Angstroms)
 Number     Number       Type             X           Y           Z
 ---------------------------------------------------------------------
      1          7           0        1.045253   -0.299483    0.004488
      2          6           0        2.238443   -0.255638    0.003887
      3          6           0        4.461994   -1.381413    0.003160
      4          6           0        3.693826   -0.195045    0.002938
      5          6           0        4.347885    1.077490    0.002874
      6          6           0        5.736539    1.149467    0.002233
      7          6           0        6.535161   -0.043883    0.001499
      8          6           0        5.892161   -1.359486    0.002166
      9          6           0        6.625525   -2.607933    0.001760
     10          6           0        8.035024   -2.443752    0.000403
     11          6           0        8.696708   -1.166987   -0.000606
     12          6           0        7.958553    0.014506   -0.000039
     13          7           0        9.569655   -4.612026   -0.000405
     14          6           0        8.879271   -3.637041   -0.000014
     15          1           0        3.949697   -2.352799    0.003549
     16          1           0        3.755085    1.999791    0.002840
     17          1           0        6.216483    2.136808    0.001570
     18          1           0        9.795861   -1.096519   -0.001729
     19          1           0        8.470854    0.982444   -0.000834
 ---------------------------------------------------------------------
                    Distance matrix (angstroms):
                    1          2          3          4          5
     1  N    0.000000
     2  C    1.193996   0.000000
     3  C    3.583949   2.492297   0.000000
     4  C    2.650632   1.456644   1.413347   0.000000
     5  C    3.578189   2.495391   2.461549   1.430783   0.000000
     6  C    4.909952   3.769748   2.833693   2.445484   1.390519
     7  C    5.495856   4.301934   2.467187   2.845354   2.457979
     8  C    4.961464   3.816823   1.430335   2.487689   2.885072
     9  C    6.038906   4.977929   2.487010   3.796958   4.332435
    10  C    7.311280   6.195822   3.727616   4.889038   5.098446
    11  C    7.700478   6.522252   4.240141   5.096422   4.893869
    12  C    6.920429   5.726487   3.764907   4.269873   3.763891
    13  N    9.553192   8.527884   6.043598   7.350857   7.722532
    14  C    8.515348   7.452147   4.959860   6.223840   6.539134
    15  H    3.556951   2.706745   1.098198   2.172871   3.453322
    16  H    3.553851   2.717934   3.454310   2.195691   1.096381
    17  H    5.716392   4.642047   3.931426   3.435307   2.147979
    18  H    8.786834   7.604057   5.341473   6.168266   5.865730
    19  H    7.535445   6.354197   4.653901   4.920010   4.124067
                    6          7          8          9         10
     6  C    0.000000
     7  C    1.435925   0.000000
     8  C    2.513774   1.464330   0.000000
     9  C    3.861133   2.565642   1.447910   0.000000
    10  C    4.265473   2.830011   2.401562   1.419030   0.000000
    11  C    3.758798   2.435909   2.811148   2.523119   1.438039
    12  C    2.495093   1.424590   2.481499   2.941794   2.459447
    13  N    6.920086   5.484167   4.909479   3.561502   2.656408
    14  C    5.726031   4.290179   3.756340   2.477587   1.461743
    15  H    3.931752   3.466370   2.181706   2.687965   4.086341
    16  H    2.156204   3.450425   3.981437   5.428678   6.169519
    17  H    1.097811   2.203853   3.511304   4.762340   4.928349
    18  H    4.639242   3.426400   3.912549   3.512181   2.217112
    19  H    2.739413   2.190950   3.483433   4.036837   3.453805
                   11         12         13         14         15
    11  C    0.000000
    12  C    1.393125   0.000000
    13  N    3.553918   4.899025   0.000000
    14  C    2.476792   3.765835   1.194666   0.000000
    15  H    4.892881   4.655650   6.057067   5.094114   0.000000
    16  H    5.869254   4.648711   8.804849   7.617819   4.356938
    17  H    4.131172   2.745720   7.535949   6.358284   5.029402
    18  H    1.101410   2.147110   3.522778   2.700814   5.979624
    19  H    2.161264   1.095152   5.701356   4.637505   5.618250
                   16         17         18         19
    16  H    0.000000
    17  H    2.465209   0.000000
    18  H    6.788088   4.823522   0.000000
    19  H    4.824261   2.532736   2.465306   0.000000
 Stoichiometry    C12H5N2(1-)
 Framework group  C1[X(C12H5N2)]
 Deg. of freedom    51
 Full point group                 C1      NOp   1
 Largest Abelian subgroup         C1      NOp   1
 Largest concise Abelian subgroup C1      NOp   1
                         Standard orientation:                         
 ---------------------------------------------------------------------
 Center     Atomic      Atomic             Coordinates (Angstroms)
 Number     Number       Type             X           Y           Z
 ---------------------------------------------------------------------
      1          7           0        4.762082   -1.541178    0.000453
      2          6           0        3.717277   -0.963244    0.000255
      3          6           0        1.224979   -0.963599   -0.000407
      4          6           0        2.446097   -0.251967    0.000230
      5          6           0        2.437168    1.178788   -0.000247
      6          6           0        1.230666    1.870088   -0.000537
      7          6           0       -0.020777    1.165978   -0.000237
      8          6           0       -0.041163   -0.298209   -0.000369
      9          6           0       -1.259261   -1.080947   -0.000348
     10          6           0       -2.442725   -0.297966    0.000056
     11          6           0       -2.456548    1.140007    0.000519
     12          6           0       -1.264409    1.860842    0.000347
     13          7           0       -4.791110   -1.539574    0.000019
     14          6           0       -3.734848   -0.981419    0.000008
     15          1           0        1.243416   -2.061643   -0.000375
     16          1           0        3.382571    1.734003    0.000107
     17          1           0        1.248302    2.967757   -0.000276
     18          1           0       -3.405428    1.699229    0.000903
     19          1           0       -1.284406    2.955811    0.000721
 ---------------------------------------------------------------------
 Rotational constants (GHZ):      1.8250744      0.3711321      0.3084153
 Standard basis: STO-3G (5D, 7F)
 There are    75 symmetry adapted cartesian basis functions of A   symmetry.
 There are    75 symmetry adapted basis functions of A   symmetry.
    75 basis functions,   225 primitive gaussians,    75 cartesian basis functions
    46 alpha electrons       46 beta electrons
       nuclear repulsion energy       683.4478555156 Hartrees.
 NAtoms=   19 NActive=   19 NUniq=   19 SFac= 1.00D+00 NAtFMM=   60 NAOKFM=F Big=F
 Integral buffers will be    131072 words long.
 Raffenetti 2 integral format.
 Two-electron integral symmetry is turned on.
 One-electron integrals computed using PRISM.
 NBasis=    75 RedAO= T EigKep=  1.73D-01  NBF=    75
 NBsUse=    75 1.00D-06 EigRej= -1.00D+00 NBFU=    75
 Initial guess from the checkpoint file:  "/tmp/bnp.472622.sequoia/Gau-7369.chk"
 B after Tr=     0.000000    0.000000    0.000000
         Rot=    0.999999    0.000000    0.000000    0.001039 Ang=  -0.12 deg.
 ExpMin= 1.69D-01 ExpMax= 9.91D+01 ExpMxC= 9.91D+01 IAcc=1 IRadAn=         1 AccDes= 0.00D+00
 Harris functional with IExCor=  402 and IRadAn=       1 diagonalized for initial guess.
 HarFok:  IExCor=  402 AccDes= 0.00D+00 IRadAn=         1 IDoV= 1 UseB2=F ITyADJ=14
 ICtDFT=  3500011 ScaDFX=  1.000000  1.000000  1.000000  1.000000
 FoFCou: FMM=F IPFlag=           0 FMFlag=      100000 FMFlg1=           0
         NFxFlg=           0 DoJE=T BraDBF=F KetDBF=T FulRan=T
         wScrn=  0.000000 ICntrl=     500 IOpCl=  0 I1Cent=   200000004 NGrid=           0
         NMat0=    1 NMatS0=      1 NMatT0=    0 NMatD0=    1 NMtDS0=    0 NMtDT0=    0
 Petite list used in FoFCou.
 Keep R1 ints in memory in canonical form, NReq=4993994.
 Requested convergence on RMS density matrix=1.00D-08 within 128 cycles.
 Requested convergence on MAX density matrix=1.00D-06.
 Requested convergence on             energy=1.00D-06.
 No special actions if energy rises.
 Integral accuracy reduced to 1.0D-05 until final iterations.
 Initial convergence to 1.0D-05 achieved.  Increase integral accuracy.
 SCF Done:  E(RB3LYP) =  -562.519481517     A.U. after   14 cycles
            NFock= 14  Conv=0.75D-08     -V/T= 2.0138
 Calling FoFJK, ICntrl=      2127 FMM=F ISym2X=0 I1Cent= 0 IOpClX= 0 NMat=1 NMatS=1 NMatT=0.
 ***** Axes restored to original set *****
 -------------------------------------------------------------------
 Center     Atomic                   Forces (Hartrees/Bohr)
 Number     Number              X              Y              Z
 -------------------------------------------------------------------
      1        7          -0.014037079   -0.000486572    0.000012668
      2        6           0.011031890    0.000247818   -0.000029404
      3        6          -0.004501729    0.006884926   -0.000059960
      4        6          -0.001973199   -0.009598041    0.000097055
      5        6           0.011473429    0.008247578   -0.000046570
      6        6          -0.011493715    0.001394588   -0.000038775
      7        6          -0.005257831    0.005080949    0.000014504
      8        6           0.011002972    0.015980212   -0.000002576
      9        6          -0.011644965   -0.040376721    0.000027239
     10        6          -0.006066299    0.019877981   -0.000000339
     11        6           0.005145926    0.005065579   -0.000002391
     12        6           0.009756401   -0.005133487   -0.000003595
     13        7           0.006747309   -0.010313998   -0.000003140
     14        6          -0.000238679    0.003901985    0.000000426
     15        1           0.000247758   -0.001832658    0.000004654
     16        1          -0.002562098   -0.000132673    0.000014558
     17        1           0.002198975    0.000225134    0.000017272
     18        1           0.001044717   -0.000988662   -0.000008852
     19        1          -0.000873783    0.001956063    0.000007228
 -------------------------------------------------------------------
 Cartesian Forces:  Max     0.040376721 RMS     0.008172035

 GradGradGradGradGradGradGradGradGradGradGradGradGradGradGradGradGradGrad
 Berny optimization.
 Using GEDIIS/GDIIS optimizer.
 FormGI is forming the generalized inverse of G from B-inverse, IUseBI=4.
 Internal  Forces:  Max     0.021501344 RMS     0.004885597
 Search for a local minimum.
 Step number   2 out of a maximum of  102
 All quantities printed in internal units (Hartrees-Bohrs-Radians)
 Mixed Optimization -- RFO/linear search
 Update second derivatives using D2CorX and points    1    2
 DE= -3.24D-02 DEPred=-3.41D-02 R= 9.51D-01
 TightC=F SS=  1.41D+00  RLast= 3.00D-01 DXNew= 5.0454D-01 8.9991D-01
 Trust test= 9.51D-01 RLast= 3.00D-01 DXMaxT set to 5.05D-01
 ITU=  1  0
 Use linear search instead of GDIIS.
     Eigenvalues ---    0.01598   0.01599   0.01978   0.01983   0.02017
     Eigenvalues ---    0.02027   0.02060   0.02089   0.02094   0.02102
     Eigenvalues ---    0.02109   0.02123   0.02136   0.02137   0.02139
     Eigenvalues ---    0.02146   0.04843   0.04872   0.15923   0.16000
     Eigenvalues ---    0.16000   0.16000   0.16047   0.22173   0.22570
     Eigenvalues ---    0.23092   0.23665   0.24521   0.24737   0.25000
     Eigenvalues ---    0.25013   0.34712   0.34923   0.34948   0.34965
     Eigenvalues ---    0.35045   0.38841   0.40091   0.40538   0.41251
     Eigenvalues ---    0.41848   0.43485   0.44193   0.45220   0.45360
     Eigenvalues ---    0.45745   0.46055   0.46179   0.50699   1.27343
     Eigenvalues ---    1.33492
 RFO step:  Lambda=-3.52169760D-03 EMin= 1.59818086D-02
 Quartic linear search produced a step of  0.35272.
 Iteration  1 RMS(Cart)=  0.02024017 RMS(Int)=  0.00061203
 Iteration  2 RMS(Cart)=  0.00141690 RMS(Int)=  0.00026895
 Iteration  3 RMS(Cart)=  0.00000043 RMS(Int)=  0.00026895
 Variable       Old X    -DE/DX   Delta X   Delta X   Delta X     New X
                                 (Linear)    (Quad)   (Total)
    R1        2.25633   0.01405   0.02320  -0.01041   0.01280   2.26912
    R2        2.75266   0.00301   0.01304  -0.00450   0.00854   2.76120
    R3        2.67084  -0.00264   0.00736  -0.01623  -0.00881   2.66203
    R4        2.70294   0.00476   0.01544  -0.00261   0.01293   2.71587
    R5        2.07529   0.00151   0.00487   0.00032   0.00519   2.08048
    R6        2.70379   0.00769   0.02276  -0.00345   0.01928   2.72307
    R7        2.62770  -0.00454  -0.00347  -0.00953  -0.01309   2.61461
    R8        2.07186   0.00127   0.00514  -0.00092   0.00422   2.07608
    R9        2.71351   0.00549   0.02333  -0.00954   0.01373   2.72723
   R10        2.07456   0.00116   0.00608  -0.00239   0.00368   2.07825
   R11        2.76718   0.00480   0.03320  -0.02095   0.01217   2.77935
   R12        2.69208   0.00620   0.01485   0.00092   0.01523   2.70732
   R13        2.73615   0.02015   0.02911   0.02932   0.05880   2.79495
   R14        2.68158   0.01100   0.01473   0.01648   0.03173   2.71330
   R15        2.71750   0.00595   0.02802  -0.01458   0.01358   2.73108
   R16        2.76229   0.00899   0.02101   0.00594   0.02694   2.78924
   R17        2.63262  -0.00304  -0.00150  -0.00868  -0.01056   2.62206
   R18        2.08136   0.00098   0.00827  -0.00556   0.00271   2.08407
   R19        2.06954   0.00132   0.00408   0.00046   0.00454   2.07408
   R20        2.25759   0.01232   0.02190  -0.01064   0.01126   2.26885
    A1        2.13008   0.00399   0.00909   0.01327   0.02247   2.15255
    A2        2.08166  -0.00088  -0.00181  -0.00068  -0.00255   2.07911
    A3        2.07144  -0.00311  -0.00728  -0.01259  -0.01992   2.05152
    A4        2.10380   0.00037  -0.00142   0.00434   0.00293   2.10673
    A5        2.08718   0.00063   0.00113   0.00278   0.00392   2.09109
    A6        2.09221  -0.00099   0.00029  -0.00712  -0.00685   2.08536
    A7        2.09735  -0.00072   0.00067  -0.00674  -0.00626   2.09109
    A8        2.09557  -0.00195  -0.00385  -0.01150  -0.01526   2.08030
    A9        2.09027   0.00267   0.00319   0.01824   0.02152   2.11179
   A10        2.10878   0.00170   0.00057   0.00949   0.00985   2.11863
   A11        2.07505   0.00110   0.00021   0.01077   0.01108   2.08613
   A12        2.09936  -0.00280  -0.00078  -0.02026  -0.02093   2.07842
   A13        2.09721   0.00040   0.00359  -0.00080   0.00312   2.10033
   A14        2.11957   0.00171   0.00377   0.00441   0.00862   2.12819
   A15        2.06640  -0.00211  -0.00736  -0.00361  -0.01173   2.05467
   A16        2.04073  -0.00438  -0.01421  -0.00811  -0.02233   2.01840
   A17        2.08659  -0.00704  -0.01375  -0.02430  -0.03820   2.04839
   A18        2.15587   0.01142   0.02796   0.03241   0.06053   2.21640
   A19        1.98596  -0.02150  -0.04418  -0.05712  -0.09982   1.88613
   A20        2.16490   0.01261   0.02610   0.03746   0.06415   2.22905
   A21        2.07058  -0.00459  -0.01123  -0.01167  -0.02320   2.04738
   A22        2.04771  -0.00802  -0.01486  -0.02580  -0.04095   2.00676
   A23        2.10502   0.00063   0.00391  -0.00542  -0.00189   2.10313
   A24        2.11296  -0.00141   0.00263  -0.01183  -0.00900   2.10396
   A25        2.06520   0.00078  -0.00655   0.01724   0.01089   2.07609
   A26        2.08823  -0.00104  -0.00643  -0.00373  -0.01124   2.07699
   A27        2.09858  -0.00123  -0.00097  -0.00757  -0.00801   2.09058
   A28        2.09637   0.00227   0.00741   0.01130   0.01924   2.11561
   A29        3.13671  -0.00006   0.00512  -0.01523  -0.01011   3.12660
   A30        3.14119   0.00102   0.01614   0.00293   0.01907   3.16026
   A31        3.14178  -0.00001  -0.00017  -0.00036  -0.00052   3.14125
   A32        3.14164   0.00000   0.00003  -0.00006  -0.00003   3.14161
    D1        3.14152   0.00000   0.00001   0.00017   0.00019  -3.14147
    D2       -0.00096   0.00003   0.00013   0.00118   0.00131   0.00036
    D3        0.00053  -0.00001  -0.00008  -0.00063  -0.00071  -0.00018
    D4        3.14124   0.00001   0.00004   0.00038   0.00042  -3.14153
    D5        0.00046  -0.00001  -0.00008  -0.00064  -0.00072  -0.00026
    D6       -3.14104  -0.00002  -0.00010  -0.00081  -0.00090   3.14124
    D7        3.14146   0.00000   0.00001   0.00016   0.00017  -3.14156
    D8       -0.00005   0.00000  -0.00001  -0.00001  -0.00001  -0.00006
    D9        3.14138   0.00000   0.00003   0.00017   0.00021   3.14159
   D10       -0.00074   0.00002   0.00009   0.00082   0.00091   0.00017
   D11        0.00066  -0.00002  -0.00009  -0.00082  -0.00090  -0.00024
   D12       -3.14145   0.00000  -0.00003  -0.00018  -0.00021   3.14153
   D13        0.00010   0.00000  -0.00001  -0.00005  -0.00006   0.00005
   D14        3.14094   0.00002   0.00007   0.00082   0.00090  -3.14134
   D15       -3.14097  -0.00001  -0.00007  -0.00068  -0.00075   3.14146
   D16       -0.00013   0.00000   0.00001   0.00019   0.00021   0.00007
   D17       -0.00059   0.00001   0.00006   0.00058   0.00064   0.00004
   D18        3.14087   0.00001   0.00004   0.00060   0.00064   3.14151
   D19       -3.14142  -0.00001  -0.00002  -0.00032  -0.00033   3.14143
   D20        0.00004  -0.00001  -0.00004  -0.00030  -0.00033  -0.00029
   D21        0.00031   0.00000  -0.00002  -0.00023  -0.00025   0.00006
   D22       -3.14138   0.00000   0.00000  -0.00006  -0.00006  -3.14143
   D23       -3.14116   0.00000   0.00000  -0.00026  -0.00026  -3.14142
   D24        0.00034   0.00000   0.00002  -0.00008  -0.00006   0.00028
   D25        3.14151   0.00001   0.00004   0.00015   0.00019  -3.14148
   D26       -0.00015   0.00000   0.00003   0.00011   0.00014  -0.00001
   D27       -0.00021   0.00001   0.00002   0.00017   0.00020  -0.00001
   D28        3.14132   0.00000   0.00001   0.00014   0.00014   3.14146
   D29        3.14131   0.00000  -0.00002   0.00014   0.00012   3.14143
   D30       -0.00019   0.00000  -0.00004  -0.00004  -0.00008  -0.00026
   D31       -0.00009   0.00000   0.00002   0.00008   0.00010   0.00001
   D32        3.14151   0.00000  -0.00001   0.00007   0.00006   3.14157
   D33        0.00021   0.00000   0.00001   0.00001   0.00002   0.00023
   D34       -3.14150   0.00000   0.00000   0.00012   0.00011  -3.14139
   D35       -3.14139   0.00000   0.00005   0.00001   0.00005  -3.14133
   D36        0.00008   0.00000   0.00003   0.00012   0.00015   0.00024
   D37       -0.00005   0.00000  -0.00003  -0.00013  -0.00017  -0.00021
   D38       -3.14157   0.00000  -0.00002  -0.00010  -0.00011   3.14150
   D39       -3.14152   0.00000  -0.00002  -0.00024  -0.00026   3.14140
   D40        0.00014   0.00000  -0.00001  -0.00020  -0.00021  -0.00007
         Item               Value     Threshold  Converged?
 Maximum Force            0.021501     0.000450     NO 
 RMS     Force            0.004886     0.000300     NO 
 Maximum Displacement     0.127678     0.001800     NO 
 RMS     Displacement     0.020179     0.001200     NO 
 Predicted change in Energy=-3.465504D-03
 GradGradGradGradGradGradGradGradGradGradGradGradGradGradGradGradGradGrad

                          Input orientation:                          
 ---------------------------------------------------------------------
 Center     Atomic      Atomic             Coordinates (Angstroms)
 Number     Number       Type             X           Y           Z
 ---------------------------------------------------------------------
      1          7           0        1.033920   -0.302942    0.005397
      2          6           0        2.234020   -0.262903    0.004232
      3          6           0        4.470496   -1.367301    0.002560
      4          6           0        3.693476   -0.192299    0.003218
      5          6           0        4.348590    1.091159    0.002586
      6          6           0        5.730563    1.158017    0.001631
      7          6           0        6.540890   -0.036207    0.001191
      8          6           0        5.907669   -1.363684    0.001698
      9          6           0        6.590793   -2.675497    0.001537
     10          6           0        8.007164   -2.439987    0.000428
     11          6           0        8.691761   -1.167192   -0.000400
     12          6           0        7.972462    0.019342    0.000103
     13          7           0        9.590449   -4.597975   -0.000135
     14          6           0        8.890225   -3.622687    0.000116
     15          1           0        3.963855   -2.344741    0.002991
     16          1           0        3.737973    2.004451    0.003042
     17          1           0        6.225678    2.140022    0.001393
     18          1           0        9.793734   -1.123439   -0.001420
     19          1           0        8.480262    0.992362   -0.000426
 ---------------------------------------------------------------------
                    Distance matrix (angstroms):
                    1          2          3          4          5
     1  N    0.000000
     2  C    1.200768   0.000000
     3  C    3.597628   2.494298   0.000000
     4  C    2.661857   1.461163   1.408684   0.000000
     5  C    3.595909   2.510955   2.461480   1.440985   0.000000
     6  C    4.918625   3.774233   2.822233   2.443989   1.383590
     7  C    5.513427   4.312833   2.461370   2.851690   2.465184
     8  C    4.987847   3.835026   1.437178   2.504954   2.908088
     9  C    6.042174   4.980170   2.491393   3.815851   4.383511
    10  C    7.293361   6.170000   3.695765   4.864156   5.084698
    11  C    7.706458   6.520750   4.226006   5.092474   4.895231
    12  C    6.946025   5.745381   3.766504   4.284219   3.779054
    13  N    9.574003   8.538731   6.054022   7.360998   7.735847
    14  C    8.528908   7.456087   4.961933   6.226859   6.545746
    15  H    3.571200   2.706729   1.100943   2.169357   3.457373
    16  H    3.554711   2.720804   3.450406   2.197201   1.098616
    17  H    5.737808   4.659119   3.921986   3.442641   2.150250
    18  H    8.798159   7.608537   5.328822   6.170915   5.878269
    19  H    7.558165   6.371127   4.652552   4.931203   4.132854
                    6          7          8          9         10
     6  C    0.000000
     7  C    1.443190   0.000000
     8  C    2.527913   1.470770   0.000000
     9  C    3.928845   2.639762   1.479024   0.000000
    10  C    4.257762   2.815692   2.359302   1.435818   0.000000
    11  C    3.765009   2.430098   2.791018   2.586321   1.445227
    12  C    2.514497   1.432650   2.485183   3.028394   2.459574
    13  N    6.930380   5.487217   4.901379   3.562845   2.676510
    14  C    5.730497   4.287449   3.741489   2.486878   1.476001
    15  H    3.923082   3.459833   2.177358   2.647679   4.044431
    16  H    2.164917   3.467077   4.006484   5.480921   6.162712
    17  H    1.099760   2.198938   3.518108   4.829341   4.914282
    18  H    4.659872   3.429734   3.893486   3.559175   2.219265
    19  H    2.754685   2.195250   3.488437   4.125929   3.464800
                   11         12         13         14         15
    11  C    0.000000
    12  C    1.387535   0.000000
    13  N    3.546536   4.892596   0.000000
    14  C    2.463503   3.755884   1.200625   0.000000
    15  H    4.872343   4.653797   6.060993   5.089428   0.000000
    16  H    5.882121   4.676704   8.822897   7.629573   4.355054
    17  H    4.125437   2.747460   7.531420   6.348907   5.022842
    18  H    1.102842   2.150112   3.480478   2.657550   5.956433
    19  H    2.169885   1.097555   5.699507   4.633222   5.615532
                   16         17         18         19
    16  H    0.000000
    17  H    2.491397   0.000000
    18  H    6.815860   4.835411   0.000000
    19  H    4.849087   2.529877   2.490345   0.000000
 Stoichiometry    C12H5N2(1-)
 Framework group  C1[X(C12H5N2)]
 Deg. of freedom    51
 Full point group                 C1      NOp   1
 Largest Abelian subgroup         C1      NOp   1
 Largest concise Abelian subgroup C1      NOp   1
                         Standard orientation:                         
 ---------------------------------------------------------------------
 Center     Atomic      Atomic             Coordinates (Angstroms)
 Number     Number       Type             X           Y           Z
 ---------------------------------------------------------------------
      1          7           0        4.771124   -1.545733   -0.000208
      2          6           0        3.718009   -0.968851    0.000078
      3          6           0        1.223814   -0.946135    0.000305
      4          6           0        2.447184   -0.247739    0.000020
      5          6           0        2.441183    1.193233   -0.000035
      6          6           0        1.237827    1.876063   -0.000095
      7          6           0       -0.023938    1.175529   -0.000049
      8          6           0       -0.057327   -0.294862    0.000121
      9          6           0       -1.258578   -1.157710    0.000000
     10          6           0       -2.416588   -0.308837    0.000041
     11          6           0       -2.453713    1.135914    0.000163
     12          6           0       -1.276664    1.870630   -0.000012
     13          7           0       -4.802848   -1.521055   -0.000195
     14          6           0       -3.738078   -0.966288   -0.000096
     15          1           0        1.235281   -2.047018    0.000401
     16          1           0        3.398017    1.733070   -0.000197
     17          1           0        1.238706    2.975823   -0.000378
     18          1           0       -3.417568    1.671864    0.000374
     19          1           0       -1.291159    2.968090   -0.000010
 ---------------------------------------------------------------------
 Rotational constants (GHZ):      1.8112678      0.3704627      0.3075573
 Standard basis: STO-3G (5D, 7F)
 There are    75 symmetry adapted cartesian basis functions of A   symmetry.
 There are    75 symmetry adapted basis functions of A   symmetry.
    75 basis functions,   225 primitive gaussians,    75 cartesian basis functions
    46 alpha electrons       46 beta electrons
       nuclear repulsion energy       681.3985905885 Hartrees.
 NAtoms=   19 NActive=   19 NUniq=   19 SFac= 1.00D+00 NAtFMM=   60 NAOKFM=F Big=F
 Integral buffers will be    131072 words long.
 Raffenetti 2 integral format.
 Two-electron integral symmetry is turned on.
 One-electron integrals computed using PRISM.
 NBasis=    75 RedAO= T EigKep=  1.76D-01  NBF=    75
 NBsUse=    75 1.00D-06 EigRej= -1.00D+00 NBFU=    75
 Initial guess from the checkpoint file:  "/tmp/bnp.472622.sequoia/Gau-7369.chk"
 B after Tr=     0.000000    0.000000    0.000000
         Rot=    1.000000    0.000000    0.000000   -0.000038 Ang=   0.00 deg.
 ExpMin= 1.69D-01 ExpMax= 9.91D+01 ExpMxC= 9.91D+01 IAcc=1 IRadAn=         1 AccDes= 0.00D+00
 Harris functional with IExCor=  402 and IRadAn=       1 diagonalized for initial guess.
 HarFok:  IExCor=  402 AccDes= 0.00D+00 IRadAn=         1 IDoV= 1 UseB2=F ITyADJ=14
 ICtDFT=  3500011 ScaDFX=  1.000000  1.000000  1.000000  1.000000
 FoFCou: FMM=F IPFlag=           0 FMFlag=      100000 FMFlg1=           0
         NFxFlg=           0 DoJE=T BraDBF=F KetDBF=T FulRan=T
         wScrn=  0.000000 ICntrl=     500 IOpCl=  0 I1Cent=   200000004 NGrid=           0
         NMat0=    1 NMatS0=      1 NMatT0=    0 NMatD0=    1 NMtDS0=    0 NMtDT0=    0
 Petite list used in FoFCou.
 Keep R1 ints in memory in canonical form, NReq=4993994.
 Requested convergence on RMS density matrix=1.00D-08 within 128 cycles.
 Requested convergence on MAX density matrix=1.00D-06.
 Requested convergence on             energy=1.00D-06.
 No special actions if energy rises.
 Integral accuracy reduced to 1.0D-05 until final iterations.
 Initial convergence to 1.0D-05 achieved.  Increase integral accuracy.
 SCF Done:  E(RB3LYP) =  -562.523395208     A.U. after   13 cycles
            NFock= 13  Conv=0.59D-08     -V/T= 2.0140
 Calling FoFJK, ICntrl=      2127 FMM=F ISym2X=0 I1Cent= 0 IOpClX= 0 NMat=1 NMatS=1 NMatT=0.
 ***** Axes restored to original set *****
 -------------------------------------------------------------------
 Center     Atomic                   Forces (Hartrees/Bohr)
 Number     Number              X              Y              Z
 -------------------------------------------------------------------
      1        7           0.001820113   -0.000297659   -0.000012660
      2        6          -0.000865888    0.001076446    0.000023532
      3        6          -0.001416520   -0.000442387    0.000030076
      4        6          -0.000927638   -0.002232300   -0.000041833
      5        6          -0.000269099    0.001498082    0.000018113
      6        6          -0.000230213   -0.000439382    0.000015346
      7        6          -0.001514632   -0.004108798   -0.000007147
      8        6          -0.002712111    0.011001485   -0.000000098
      9        6           0.000276135   -0.005111270   -0.000008747
     10        6           0.004826210    0.001773631   -0.000000362
     11        6           0.000069670   -0.000812923    0.000003008
     12        6           0.000451490    0.001901955   -0.000006334
     13        7          -0.000767788    0.001907109    0.000000393
     14        6           0.001406596   -0.003315228   -0.000002337
     15        1           0.000391684    0.000160736   -0.000003000
     16        1           0.000329523   -0.000435176   -0.000002495
     17        1           0.000372521   -0.000585976   -0.000010309
     18        1          -0.000930491   -0.001276868    0.000004771
     19        1          -0.000309560   -0.000261478    0.000000084
 -------------------------------------------------------------------
 Cartesian Forces:  Max     0.011001485 RMS     0.002058058

 GradGradGradGradGradGradGradGradGradGradGradGradGradGradGradGradGradGrad
 Berny optimization.
 Using GEDIIS/GDIIS optimizer.
 FormGI is forming the generalized inverse of G from B-inverse, IUseBI=4.
 Internal  Forces:  Max     0.006621488 RMS     0.001109335
 Search for a local minimum.
 Step number   3 out of a maximum of  102
 All quantities printed in internal units (Hartrees-Bohrs-Radians)
 Mixed Optimization -- RFO/linear search
 Update second derivatives using D2CorX and points    1    2    3
 DE= -3.91D-03 DEPred=-3.47D-03 R= 1.13D+00
 TightC=F SS=  1.41D+00  RLast= 1.82D-01 DXNew= 8.4853D-01 5.4532D-01
 Trust test= 1.13D+00 RLast= 1.82D-01 DXMaxT set to 5.45D-01
 ITU=  1  1  0
 Use linear search instead of GDIIS.
     Eigenvalues ---    0.01598   0.01602   0.01975   0.01984   0.02018
     Eigenvalues ---    0.02028   0.02060   0.02090   0.02094   0.02103
     Eigenvalues ---    0.02109   0.02122   0.02136   0.02137   0.02140
     Eigenvalues ---    0.02146   0.04843   0.04879   0.15512   0.16000
     Eigenvalues ---    0.16000   0.16009   0.16053   0.21610   0.22633
     Eigenvalues ---    0.22894   0.23557   0.24597   0.24776   0.25004
     Eigenvalues ---    0.25112   0.34705   0.34916   0.34947   0.34967
     Eigenvalues ---    0.35075   0.37365   0.39185   0.40202   0.41227
     Eigenvalues ---    0.41601   0.43504   0.43882   0.45155   0.45360
     Eigenvalues ---    0.45788   0.46070   0.46248   0.51532   1.27374
     Eigenvalues ---    1.36070
 RFO step:  Lambda=-3.36969992D-04 EMin= 1.59818264D-02
 Quartic linear search produced a step of  0.01362.
 Iteration  1 RMS(Cart)=  0.01143205 RMS(Int)=  0.00025509
 Iteration  2 RMS(Cart)=  0.00025585 RMS(Int)=  0.00000211
 Iteration  3 RMS(Cart)=  0.00000002 RMS(Int)=  0.00000211
 Variable       Old X    -DE/DX   Delta X   Delta X   Delta X     New X
                                 (Linear)    (Quad)   (Total)
    R1        2.26912  -0.00181   0.00017  -0.00035  -0.00018   2.26895
    R2        2.76120  -0.00099   0.00012  -0.00181  -0.00169   2.75951
    R3        2.66203  -0.00072  -0.00012  -0.00110  -0.00122   2.66080
    R4        2.71587   0.00070   0.00018   0.00233   0.00251   2.71838
    R5        2.08048  -0.00032   0.00007  -0.00065  -0.00058   2.07990
    R6        2.72307   0.00086   0.00026   0.00340   0.00366   2.72673
    R7        2.61461   0.00023  -0.00018   0.00029   0.00011   2.61471
    R8        2.07608  -0.00055   0.00006  -0.00128  -0.00123   2.07486
    R9        2.72723  -0.00059   0.00019  -0.00036  -0.00018   2.72706
   R10        2.07825  -0.00036   0.00005  -0.00070  -0.00065   2.07759
   R11        2.77935  -0.00420   0.00017  -0.00856  -0.00839   2.77096
   R12        2.70732   0.00136   0.00021   0.00352   0.00373   2.71104
   R13        2.79495   0.00662   0.00080   0.01687   0.01767   2.81262
   R14        2.71330   0.00328   0.00043   0.00840   0.00883   2.72214
   R15        2.73108  -0.00169   0.00019  -0.00219  -0.00201   2.72908
   R16        2.78924   0.00151   0.00037   0.00492   0.00528   2.79452
   R17        2.62206   0.00172  -0.00014   0.00335   0.00320   2.62526
   R18        2.08407  -0.00098   0.00004  -0.00241  -0.00237   2.08170
   R19        2.07408  -0.00037   0.00006  -0.00084  -0.00078   2.07330
   R20        2.26885  -0.00200   0.00015  -0.00059  -0.00043   2.26842
    A1        2.15255  -0.00066   0.00031  -0.00202  -0.00171   2.15084
    A2        2.07911   0.00062  -0.00003   0.00304   0.00300   2.08211
    A3        2.05152   0.00004  -0.00027  -0.00102  -0.00129   2.05023
    A4        2.10673   0.00089   0.00004   0.00304   0.00308   2.10981
    A5        2.09109  -0.00030   0.00005  -0.00162  -0.00157   2.08952
    A6        2.08536  -0.00059  -0.00009  -0.00142  -0.00151   2.08385
    A7        2.09109  -0.00035  -0.00009  -0.00087  -0.00096   2.09014
    A8        2.08030   0.00021  -0.00021   0.00026   0.00005   2.08036
    A9        2.11179   0.00014   0.00029   0.00061   0.00090   2.11269
   A10        2.11863   0.00053   0.00013   0.00213   0.00226   2.12089
   A11        2.08613   0.00035   0.00015   0.00300   0.00315   2.08928
   A12        2.07842  -0.00088  -0.00029  -0.00513  -0.00541   2.07301
   A13        2.10033  -0.00056   0.00004  -0.00262  -0.00258   2.09775
   A14        2.12819  -0.00054   0.00012  -0.00081  -0.00069   2.12750
   A15        2.05467   0.00110  -0.00016   0.00344   0.00327   2.05794
   A16        2.01840   0.00163  -0.00030   0.00480   0.00450   2.02290
   A17        2.04839  -0.00017  -0.00052  -0.00132  -0.00184   2.04654
   A18        2.21640  -0.00145   0.00082  -0.00348  -0.00266   2.21374
   A19        1.88613   0.00067  -0.00136   0.00070  -0.00065   1.88548
   A20        2.22905  -0.00128   0.00087  -0.00276  -0.00189   2.22716
   A21        2.04738   0.00074  -0.00032   0.00196   0.00164   2.04902
   A22        2.00676   0.00054  -0.00056   0.00081   0.00025   2.00701
   A23        2.10313   0.00054  -0.00003   0.00204   0.00201   2.10514
   A24        2.10396  -0.00156  -0.00012  -0.00894  -0.00906   2.09490
   A25        2.07609   0.00102   0.00015   0.00690   0.00705   2.08314
   A26        2.07699   0.00043  -0.00015   0.00007  -0.00009   2.07690
   A27        2.09058  -0.00038  -0.00011  -0.00141  -0.00151   2.08907
   A28        2.11561  -0.00006   0.00026   0.00133   0.00160   2.11721
   A29        3.12660   0.00082  -0.00014   0.05125   0.05111   3.17771
   A30        3.16026  -0.00111   0.00026  -0.02116  -0.02090   3.13937
   A31        3.14125   0.00002  -0.00001   0.00120   0.00119   3.14244
   A32        3.14161   0.00000   0.00000  -0.00001  -0.00001   3.14160
    D1       -3.14147   0.00000   0.00000  -0.00013  -0.00013   3.14158
    D2        0.00036  -0.00001   0.00002  -0.00045  -0.00043  -0.00007
    D3       -0.00018   0.00000  -0.00001   0.00021   0.00020   0.00002
    D4       -3.14153   0.00000   0.00001  -0.00010  -0.00009   3.14156
    D5       -0.00026   0.00001  -0.00001   0.00025   0.00024  -0.00002
    D6        3.14124   0.00001  -0.00001   0.00032   0.00031   3.14155
    D7       -3.14156   0.00000   0.00000  -0.00010  -0.00009   3.14154
    D8       -0.00006   0.00000   0.00000  -0.00002  -0.00002  -0.00008
    D9        3.14159   0.00000   0.00000   0.00003   0.00004  -3.14156
   D10        0.00017   0.00000   0.00001  -0.00020  -0.00018  -0.00001
   D11       -0.00024   0.00001  -0.00001   0.00034   0.00033   0.00009
   D12        3.14153   0.00000   0.00000   0.00011   0.00011  -3.14155
   D13        0.00005   0.00000   0.00000  -0.00006  -0.00007  -0.00002
   D14       -3.14134  -0.00001   0.00001  -0.00034  -0.00032   3.14152
   D15        3.14146   0.00000  -0.00001   0.00017   0.00016  -3.14156
   D16        0.00007   0.00000   0.00000  -0.00010  -0.00010  -0.00002
   D17        0.00004   0.00000   0.00001  -0.00013  -0.00012  -0.00007
   D18        3.14151   0.00000   0.00001  -0.00003  -0.00003   3.14149
   D19        3.14143   0.00000   0.00000   0.00014   0.00014   3.14157
   D20       -0.00029   0.00001   0.00000   0.00024   0.00023  -0.00006
[...]
 ! D18   D(5,6,7,12)           179.9992         -DE/DX =    0.0                 !
 ! D19   D(17,6,7,8)           179.9996         -DE/DX =    0.0                 !
 ! D20   D(17,6,7,12)           -0.0006         -DE/DX =    0.0                 !
 ! D21   D(6,7,8,3)              0.0008         -DE/DX =    0.0                 !
 ! D22   D(6,7,8,9)           -179.999          -DE/DX =    0.0                 !
 ! D23   D(12,7,8,3)          -179.999          -DE/DX =    0.0                 !
 ! D24   D(12,7,8,9)             0.0012         -DE/DX =    0.0                 !
 ! D25   D(6,7,12,11)          179.9994         -DE/DX =    0.0                 !
 ! D26   D(6,7,12,19)           -0.0006         -DE/DX =    0.0                 !
 ! D27   D(8,7,12,11)           -0.0008         -DE/DX =    0.0                 !
 ! D28   D(8,7,12,19)          179.9992         -DE/DX =    0.0                 !
 ! D29   D(3,8,9,10)           179.9998         -DE/DX =    0.0                 !
 ! D30   D(7,8,9,10)            -0.0003         -DE/DX =    0.0                 !
 ! D31   D(8,9,10,11)           -0.001          -DE/DX =    0.0                 !
 ! D32   D(8,9,10,14)          179.9993         -DE/DX =    0.0                 !
 ! D33   D(9,10,11,12)           0.0014         -DE/DX =    0.0                 !
 ! D34   D(9,10,11,18)        -179.9986         -DE/DX =    0.0                 !
 ! D35   D(14,10,11,12)       -179.9989         -DE/DX =    0.0                 !
 ! D36   D(14,10,11,18)          0.0012         -DE/DX =    0.0                 !
 ! D37   D(10,11,12,7)          -0.0004         -DE/DX =    0.0                 !
 ! D38   D(10,11,12,19)        179.9997         -DE/DX =    0.0                 !
 ! D39   D(18,11,12,7)         179.9996         -DE/DX =    0.0                 !
 ! D40   D(18,11,12,19)         -0.0004         -DE/DX =    0.0                 !
 --------------------------------------------------------------------------------
 GradGradGradGradGradGradGradGradGradGradGradGradGradGradGradGradGradGrad

                          Input orientation:                          
 ---------------------------------------------------------------------
 Center     Atomic      Atomic             Coordinates (Angstroms)
 Number     Number       Type             X           Y           Z
 ---------------------------------------------------------------------
      1          7           0        1.031063   -0.298144    0.004963
      2          6           0        2.230269   -0.254441    0.004363
      3          6           0        4.464830   -1.365541    0.002853
      4          6           0        3.688497   -0.191053    0.003278
      5          6           0        4.347320    1.092672    0.002643
      6          6           0        5.729154    1.155678    0.001620
      7          6           0        6.538270   -0.039737    0.001166
      8          6           0        5.902022   -1.356170    0.001802
      9          6           0        6.589362   -2.680783    0.001475
     10          6           0        8.010564   -2.442768    0.000401
     11          6           0        8.690600   -1.169817   -0.000287
     12          6           0        7.971388    0.017785    0.000088
     13          7           0        9.612497   -4.587543   -0.000459
     14          6           0        8.897271   -3.624271   -0.000076
     15          1           0        3.963217   -2.345005    0.003339
     16          1           0        3.739094    2.006699    0.002981
     17          1           0        6.230199    2.134164    0.001134
     18          1           0        9.791659   -1.134556   -0.001121
     19          1           0        8.476704    0.991331   -0.000421
 ---------------------------------------------------------------------
                    Distance matrix (angstroms):
                    1          2          3          4          5
     1  N    0.000000
     2  C    1.200002   0.000000
     3  C    3.595844   2.495557   0.000000
     4  C    2.659592   1.459605   1.407876   0.000000
     5  C    3.596100   2.509307   2.461020   1.442913   0.000000
     6  C    4.917892   3.772351   2.820472   2.444988   1.383270
     7  C    5.513267   4.313349   2.461080   2.853788   2.466296
     8  C    4.984543   3.833482   1.437223   2.501438   2.900677
     9  C    6.047451   4.988870   2.498699   3.822796   4.389273
    10  C    7.301566   6.180663   3.705760   4.873447   5.091041
    11  C    7.708978   6.524860   4.230301   5.096962   4.897238
    12  C    6.947514   5.747571   3.769556   4.287981   3.780114
    13  N    9.593748   8.559970   6.072873   7.377189   7.745124
    14  C    8.540514   7.470254   4.974777   6.238455   6.553749
    15  H    3.575916   2.715432   1.100439   2.171401   3.459070
    16  H    3.556084   2.718328   3.449448   2.198334   1.097900
    17  H    5.739961   4.658850   3.919754   3.444835   2.151729
    18  H    8.800436   7.612440   5.331837   6.175662   5.882294
    19  H    7.556477   6.369452   4.652955   4.932035   4.130628
                    6          7          8          9         10
     6  C    0.000000
     7  C    1.443497   0.000000
     8  C    2.517790   1.462125   0.000000
     9  C    3.931715   2.641540   1.492325   0.000000
    10  C    4.260709   2.818192   2.372055   1.440995   0.000000
    11  C    3.765381   2.430968   2.794798   2.588092   1.443209
    12  C    2.514442   1.434272   2.483955   3.031875   2.460865
    13  N    6.932889   5.489392   4.920305   3.574226   2.676986
    14  C    5.734534   4.291128   3.757100   2.493315   1.477228
    15  H    3.920882   3.456178   2.176410   2.647524   4.048528
    16  H    2.164388   3.467461   3.998393   5.486029   6.167918
    17  H    1.099310   2.195621   3.505729   4.828324   4.911009
    18  H    4.663596   3.432663   3.895946   3.556056   2.209914
    19  H    2.752462   2.195593   3.484215   4.128739   3.465592
                   11         12         13         14         15
    11  C    0.000000
    12  C    1.388403   0.000000
    13  N    3.539879   4.888996   0.000000
    14  C    2.463140   3.757903   1.199767   0.000000
    15  H    4.871265   4.652765   6.078104   5.097197   0.000000
    16  H    5.882829   4.676334   8.830680   7.636401   4.357472
    17  H    4.119450   2.740585   7.524712   6.346090   5.020176
    18  H    1.101624   2.154362   3.457632   2.645489   5.952809
    19  H    2.171708   1.096876   5.693318   4.634724   5.612728
                   16         17         18         19
    16  H    0.000000
    17  H    2.494364   0.000000
    18  H    6.819167   4.834102   0.000000
    19  H    4.845196   2.520487   2.499701   0.000000
 Stoichiometry    C12H5N2(1-)
 Framework group  C1[X(C12H5N2)]
 Deg. of freedom    51
 Full point group                 C1      NOp   1
 Largest Abelian subgroup         C1      NOp   1
 Largest concise Abelian subgroup C1      NOp   1
                         Standard orientation:                         
 ---------------------------------------------------------------------
 Center     Atomic      Atomic             Coordinates (Angstroms)
 Number     Number       Type             X           Y           Z
 ---------------------------------------------------------------------
      1          7           0        4.776330   -1.541473    0.000169
      2          6           0        3.725385   -0.962232   -0.000093
      3          6           0        1.229871   -0.947570   -0.000043
      4          6           0        2.452057   -0.248732   -0.000058
      5          6           0        2.442168    1.194148   -0.000050
      6          6           0        1.236871    1.872893   -0.000022
      7          6           0       -0.024011    1.170140    0.000001
      8          6           0       -0.049011   -0.291771   -0.000019
      9          6           0       -1.259374   -1.164729   -0.000020
     10          6           0       -2.420980   -0.312003    0.000010
     11          6           0       -2.454661    1.130813    0.000056
     12          6           0       -1.277564    1.867092    0.000048
     13          7           0       -4.817349   -1.505179   -0.000012
     14          6           0       -3.744867   -0.967383   -0.000002
     15          1           0        1.236469   -2.047989   -0.000050
     16          1           0        3.396937    1.736180   -0.000066
     17          1           0        1.230339    2.972183   -0.000013
     18          1           0       -3.421785    1.658303    0.000099
     19          1           0       -1.290134    2.963896    0.000077
 ---------------------------------------------------------------------
 Rotational constants (GHZ):      1.8203384      0.3691732      0.3069270

 **********************************************************************

            Population analysis using the SCF density.

 **********************************************************************

 Orbital symmetries:
       Occupied  (A) (A) (A) (A) (A) (A) (A) (A) (A) (A) (A) (A)
                 (A) (A) (A) (A) (A) (A) (A) (A) (A) (A) (A) (A)
                 (A) (A) (A) (A) (A) (A) (A) (A) (A) (A) (A) (A)
                 (A) (A) (A) (A) (A) (A) (A) (A) (A) (A)
       Virtual   (A) (A) (A) (A) (A) (A) (A) (A) (A) (A) (A) (A)
                 (A) (A) (A) (A) (A) (A) (A) (A) (A) (A) (A) (A)
                 (A) (A) (A) (A) (A)
 The electronic state is 1-A.
 Alpha  occ. eigenvalues --  -13.99239 -13.93318  -9.90287  -9.89790  -9.88368
 Alpha  occ. eigenvalues --   -9.87524  -9.87283  -9.86726  -9.85330  -9.84205
 Alpha  occ. eigenvalues --   -9.84054  -9.83571  -9.82785  -9.68411  -0.72839
 Alpha  occ. eigenvalues --   -0.67954  -0.67166  -0.62121  -0.57704  -0.54945
 Alpha  occ. eigenvalues --   -0.51649  -0.44389  -0.43320  -0.38806  -0.35912
 Alpha  occ. eigenvalues --   -0.32418  -0.31033  -0.26491  -0.25560  -0.23646
 Alpha  occ. eigenvalues --   -0.20966  -0.20485  -0.20081  -0.16526  -0.16456
 Alpha  occ. eigenvalues --   -0.15568  -0.14219  -0.13504  -0.12972  -0.10290
 Alpha  occ. eigenvalues --   -0.09850  -0.08184  -0.07167  -0.03060   0.01697
 Alpha  occ. eigenvalues --    0.10042
 Alpha virt. eigenvalues --    0.17821   0.20149   0.25540   0.26302   0.29324
 Alpha virt. eigenvalues --    0.30965   0.33138   0.38854   0.42924   0.45694
 Alpha virt. eigenvalues --    0.47856   0.50304   0.53054   0.54536   0.56406
 Alpha virt. eigenvalues --    0.57751   0.60016   0.62841   0.67347   0.68426
 Alpha virt. eigenvalues --    0.69803   0.76200   0.77396   0.81400   0.84323
 Alpha virt. eigenvalues --    0.91793   0.92538   1.06575   1.10492
          Condensed to atoms (all electrons):
               1          2          3          4          5          6
     1  N    6.593645   0.660185  -0.000093  -0.011051  -0.000083  -0.000001
     2  C    0.660185   4.935404  -0.028235   0.421197  -0.028952   0.000850
     3  C   -0.000093  -0.028235   4.838951   0.500277  -0.029083  -0.009710
     4  C   -0.011051   0.421197   0.500277   4.785653   0.460965  -0.029538
     5  C   -0.000083  -0.028952  -0.029083   0.460965   4.827660   0.531854
     6  C   -0.000001   0.000850  -0.009710  -0.029538   0.531854   4.836012
     7  C    0.000000   0.000007  -0.033791  -0.008878  -0.027425   0.461560
     8  C   -0.000001   0.000782   0.469633  -0.025122  -0.007905  -0.023233
     9  C    0.000000  -0.000005  -0.034095   0.000739   0.000015   0.000562
    10  C    0.000000   0.000000   0.001374  -0.000014   0.000001   0.000054
    11  C    0.000000   0.000000   0.000012   0.000001  -0.000009   0.000820
    12  C    0.000000   0.000000   0.000895   0.000038   0.000777  -0.029759
    13  N    0.000000   0.000000   0.000000   0.000000   0.000000   0.000000
    14  C    0.000000   0.000000  -0.000005   0.000000   0.000000   0.000000
    15  H    0.000059  -0.003405   0.383673  -0.026156   0.001285   0.000030
    16  H    0.000059  -0.003005   0.001212  -0.024819   0.387155  -0.024935
    17  H    0.000000  -0.000018   0.000008   0.001415  -0.026792   0.384731
    18  H    0.000000   0.000000   0.000001   0.000000   0.000000  -0.000017
    19  H    0.000000   0.000000  -0.000021  -0.000001   0.000014  -0.003404
               7          8          9         10         11         12
     1  N    0.000000  -0.000001   0.000000   0.000000   0.000000   0.000000
     2  C    0.000007   0.000782  -0.000005   0.000000   0.000000   0.000000
     3  C   -0.033791   0.469633  -0.034095   0.001374   0.000012   0.000895
     4  C   -0.008878  -0.025122   0.000739  -0.000014   0.000001   0.000038
     5  C   -0.027425  -0.007905   0.000015   0.000001  -0.000009   0.000777
     6  C    0.461560  -0.023233   0.000562   0.000054   0.000820  -0.029759
     7  C    4.817379   0.441666  -0.017154  -0.012182  -0.028765   0.471618
     8  C    0.441666   4.897984   0.386429  -0.028882  -0.012828  -0.030093
     9  C   -0.017154   0.386429   5.477936   0.433044  -0.017866  -0.005549
    10  C   -0.012182  -0.028882   0.433044   4.893892   0.456405  -0.030106
    11  C   -0.028765  -0.012828  -0.017866   0.456405   4.849162   0.523534
    12  C    0.471618  -0.030093  -0.005549  -0.030106   0.523534   4.862475
    13  N    0.000000  -0.000002  -0.000005  -0.010986  -0.000025  -0.000001
    14  C    0.000005   0.001433  -0.033117   0.403255  -0.038744   0.000924
    15  H    0.001414  -0.024868  -0.001613   0.000031   0.000000  -0.000017
    16  H    0.001344   0.000023   0.000000   0.000000   0.000000  -0.000017
    17  H   -0.024525   0.001112  -0.000013  -0.000002   0.000015  -0.003378
    18  H    0.001461   0.000090   0.000948  -0.023056   0.380850  -0.027048
    19  H   -0.025329   0.001160  -0.000006   0.001268  -0.025405   0.386982
              13         14         15         16         17         18
     1  N    0.000000   0.000000   0.000059   0.000059   0.000000   0.000000
     2  C    0.000000   0.000000  -0.003405  -0.003005  -0.000018   0.000000
     3  C    0.000000  -0.000005   0.383673   0.001212   0.000008   0.000001
     4  C    0.000000   0.000000  -0.026156  -0.024819   0.001415   0.000000
     5  C    0.000000   0.000000   0.001285   0.387155  -0.026792   0.000000
     6  C    0.000000   0.000000   0.000030  -0.024935   0.384731  -0.000017
     7  C    0.000000   0.000005   0.001414   0.001344  -0.024525   0.001461
     8  C   -0.000002   0.001433  -0.024868   0.000023   0.001112   0.000090
     9  C   -0.000005  -0.033117  -0.001613   0.000000  -0.000013   0.000948
    10  C   -0.010986   0.403255   0.000031   0.000000  -0.000002  -0.023056
    11  C   -0.000025  -0.038744   0.000000   0.000000   0.000015   0.380850
    12  C   -0.000001   0.000924  -0.000017  -0.000017  -0.003378  -0.027048
    13  N    6.632885   0.659902   0.000000   0.000000   0.000000   0.000041
    14  C    0.659902   4.973980  -0.000001   0.000000   0.000000  -0.003306
    15  H    0.000000  -0.000001   0.590901  -0.000033   0.000002   0.000000
    16  H    0.000000   0.000000  -0.000033   0.606746  -0.003869   0.000000
    17  H    0.000000   0.000000   0.000002  -0.003869   0.616402  -0.000002
    18  H    0.000041  -0.003306   0.000000   0.000000  -0.000002   0.624597
    19  H    0.000000  -0.000020   0.000000  -0.000001   0.001018  -0.003822
              19
     1  N    0.000000
     2  C    0.000000
     3  C   -0.000021
     4  C   -0.000001
     5  C    0.000014
     6  C   -0.003404
     7  C   -0.025329
     8  C    0.001160
     9  C   -0.000006
    10  C    0.001268
    11  C   -0.025405
    12  C    0.386982
    13  N    0.000000
    14  C   -0.000020
    15  H    0.000000
    16  H   -0.000001
    17  H    0.001018
    18  H   -0.003822
    19  H    0.626311
 Mulliken charges:
               1
     1  N   -0.242719
     2  C    0.045194
     3  C   -0.061003
     4  C   -0.044705
     5  C   -0.089476
     6  C   -0.095875
     7  C   -0.018405
     8  C   -0.047376
     9  C   -0.190249
    10  C   -0.084095
    11  C   -0.087155
    12  C   -0.121275
    13  N   -0.281809
    14  C    0.035696
    15  H    0.078698
    16  H    0.060139
    17  H    0.053896
    18  H    0.049263
    19  H    0.041257
 Sum of Mulliken charges =  -1.00000
 Mulliken charges with hydrogens summed into heavy atoms:
               1
     1  N   -0.242719
     2  C    0.045194
     3  C    0.017695
     4  C   -0.044705
     5  C   -0.029337
     6  C   -0.041979
     7  C   -0.018405
     8  C   -0.047376
     9  C   -0.190249
    10  C   -0.084095
    11  C   -0.037892
    12  C   -0.080018
    13  N   -0.281809
    14  C    0.035696
 Electronic spatial extent (au):  <R**2>=           3261.1359
 Charge=             -1.0000 electrons
 Dipole moment (field-independent basis, Debye):
    X=              3.4045    Y=              5.5612    Z=             -0.0002  Tot=              6.5205
 Quadrupole moment (field-independent basis, Debye-Ang):
   XX=           -140.4219   YY=            -84.6609   ZZ=            -74.1569
   XY=             -4.5668   XZ=             -0.0018   YZ=              0.0004
 Traceless Quadrupole moment (field-independent basis, Debye-Ang):
   XX=            -40.6753   YY=             15.0856   ZZ=             25.5897
   XY=             -4.5668   XZ=             -0.0018   YZ=              0.0004
 Octapole moment (field-independent basis, Debye-Ang**2):
  XXX=             33.8069  YYY=             18.2978  ZZZ=              0.0003  XYY=             11.1768
  XXY=            118.8267  XXZ=             -0.0071  XZZ=             -0.0237  YZZ=             -3.7339
  YYZ=             -0.0005  XYZ=              0.0028
 Hexadecapole moment (field-independent basis, Debye-Ang**3):
 XXXX=          -5023.1125 YYYY=           -789.3980 ZZZZ=            -58.3629 XXXY=            -35.5046
 XXXZ=             -0.0427 YYYX=            -15.6631 YYYZ=              0.0012 ZZZX=              0.0022
 ZZZY=             -0.0006 XXYY=           -872.0990 XXZZ=           -558.6147 YYZZ=           -143.5448
 XXYZ=              0.0126 YYXZ=             -0.0049 ZZXY=             -0.2572
 N-N= 6.810946869300D+02 E-N=-2.684510762433D+03  KE= 5.547793329743D+02
 1\1\GINC-N018\FOpt\RB3LYP\STO-3G\C12H5N2(1-)\R2532\15-Jun-2021\0\\#N B
 3LYP/STO-3G OPT\\2Naph\\-1,1\N,1.0310631192,-0.2981435004,0.004962855\
 C,2.2302692597,-0.2544411366,0.00436272\C,4.4648295868,-1.3655409937,0
 .0028529908\C,3.6884972786,-0.191053163,0.0032782963\C,4.3473201818,1.
 0926722819,0.0026425795\C,5.729153715,1.1556777232,0.0016201008\C,6.53
 82701478,-0.0397365143,0.0011658372\C,5.902021984,-1.3561704238,0.0018
 016322\C,6.5893616126,-2.6807827306,0.0014747642\C,8.0105636767,-2.442
 767772,0.0004006971\C,8.6905995496,-1.1698172455,-0.0002873121\C,7.971
 3882902,0.0177849222,0.0000884841\N,9.6124973865,-4.5875430633,-0.0004
 588626\C,8.8972711849,-3.6242714359,-0.0000762413\H,3.9632174103,-2.34
 50052993,0.0033391304\H,3.7390940235,2.0066988935,0.0029808836\H,6.230
 1987311,2.1341642561,0.001133664\H,9.7916591221,-1.1345562703,-0.00112
 10534\H,8.4767037396,0.9913314719,-0.0004211596\\Version=ES64L-G09RevD
 .01\State=1-A\HF=-562.5235942\RMSD=4.969e-09\RMSF=1.574e-05\Dipole=-0.
 2101921,2.5567473,-0.000069\Quadrupole=-19.0968675,0.0716,19.0252675,1
 8.6906048,0.0236207,-0.0107273\PG=C01 [X(C12H5N2)]\\@


 THE SCIENTIFIC THEORIST IS NOT TO BE ENVIED. FOR NATURE, OR MORE
 PRECISELY EXPERIMENT, IS AN INEXORABLE AND NOT VERY FRIENDLY JUDGE OF HIS
 WORK.  IT NEVER SAYS "YES" TO A THEORY. IN THE MOST FAVORABLE CASES
 IT SAYS "MAYBE", AND IN THE GREAT MAJORITY OF CASES SIMPLY "NO"...
 PROBABLY EVERY THEORY WILL SOME DAY EXPERIENCE ITS "NO" - MOST
 THEORIES, SOON AFTER CONCEPTION.  -- A.EINSTEIN, NOV 11, 1922.
 Job cpu time:       0 days  0 hours  4 minutes 11.8 seconds.
 File lengths (MBytes):  RWF=      5 Int=      0 D2E=      0 Chk=      2 Scr=      1
 Normal termination of Gaussian 09 at Tue Jun 15 11:13:06 2021.
